<?xml version="1.0" encoding="UTF-8"?>

<!-- generated on 2025-12-20 15:43:58 by Eclipse SUMO sumo Version 1.23.1
<sumoConfiguration xmlns:xsi="http://www.w3.org/2001/XMLSchema-instance" xsi:noNamespaceSchemaLocation="http://sumo.dlr.de/xsd/sumoConfiguration.xsd">

    <input>
        <net-file value="F:\sumo-mcp\tests\test_outputs\manual_check\grid.net.xml"/>
        <route-files value="F:\sumo-mcp\tests\test_outputs\manual_check\routes.xml"/>
    </input>

    <output>
        <fcd-output value="F:\sumo-mcp\tests\test_outputs\manual_check\fcd.xml"/>
    </output>

    <time>
        <begin value="0"/>
        <end value="50"/>
    </time>

    <report>
        <no-step-log value="true"/>
    </report>

    <traci_server>
        <remote-port value="53432"/>
    </traci_server>

    <random_number>
        <random value="true"/>
    </random_number>

</sumoConfiguration>
-->

<fcd-export xmlns:xsi="http://www.w3.org/2001/XMLSchema-instance" xsi:noNamespaceSchemaLocation="http://sumo.dlr.de/xsd/fcd_file.xsd">
    <timestep time="0.00">
        <vehicle id="0" x="98.40" y="187.70" angle="180.00" type="DEFAULT_VEHTYPE" speed="0.00" pos="5.10" lane="B2B1_0" slope="0.00"/>
    </timestep>
    <timestep time="1.00">
        <vehicle id="0" x="98.40" y="186.39" angle="180.00" type="DEFAULT_VEHTYPE" speed="1.31" pos="6.41" lane="B2B1_0" slope="0.00"/>
        <vehicle id="1" x="8.30" y="198.40" angle="90.00" type="DEFAULT_VEHTYPE" speed="0.00" pos="5.10" lane="A2B2_0" slope="0.00"/>
    </timestep>
    <timestep time="2.00">
        <vehicle id="0" x="98.40" y="182.76" angle="180.00" type="DEFAULT_VEHTYPE" speed="3.63" pos="10.04" lane="B2B1_0" slope="0.00"/>
        <vehicle id="1" x="9.61" y="198.40" angle="90.00" type="DEFAULT_VEHTYPE" speed="1.31" pos="6.41" lane="A2B2_0" slope="0.00"/>
        <vehicle id="2" x="191.70" y="1.60" angle="270.00" type="DEFAULT_VEHTYPE" speed="0.00" pos="5.10" lane="C0B0_0" slope="0.00"/>
    </timestep>
    <timestep time="3.00">
        <vehicle id="0" x="98.40" y="176.66" angle="180.00" type="DEFAULT_VEHTYPE" speed="6.10" pos="16.14" lane="B2B1_0" slope="0.00"/>
        <vehicle id="1" x="13.24" y="198.40" angle="90.00" type="DEFAULT_VEHTYPE" speed="3.63" pos="10.04" lane="A2B2_0" slope="0.00"/>
        <vehicle id="2" x="190.39" y="1.60" angle="270.00" type="DEFAULT_VEHTYPE" speed="1.31" pos="6.41" lane="C0B0_0" slope="0.00"/>
        <vehicle id="3" x="201.60" y="112.30" angle="0.00" type="DEFAULT_VEHTYPE" speed="0.00" pos="5.10" lane="C1C2_0" slope="0.00"/>
    </timestep>
    <timestep time="4.00">
        <vehicle id="0" x="98.40" y="168.29" angle="180.00" type="DEFAULT_VEHTYPE" speed="8.38" pos="24.51" lane="B2B1_0" slope="0.00"/>
        <vehicle id="1" x="19.34" y="198.40" angle="90.00" type="DEFAULT_VEHTYPE" speed="6.10" pos="16.14" lane="A2B2_0" slope="0.00"/>
        <vehicle id="2" x="186.76" y="1.60" angle="270.00" type="DEFAULT_VEHTYPE" speed="3.63" pos="10.04" lane="C0B0_0" slope="0.00"/>
        <vehicle id="3" x="201.60" y="113.61" angle="0.00" type="DEFAULT_VEHTYPE" speed="1.31" pos="6.41" lane="C1C2_0" slope="0.00"/>
        <vehicle id="4" x="87.70" y="101.60" angle="270.00" type="DEFAULT_VEHTYPE" speed="0.00" pos="5.10" lane="B1A1_0" slope="0.00"/>
    </timestep>
    <timestep time="5.00">
        <vehicle id="0" x="98.40" y="158.48" angle="180.00" type="DEFAULT_VEHTYPE" speed="9.81" pos="34.32" lane="B2B1_0" slope="0.00"/>
        <vehicle id="1" x="27.71" y="198.40" angle="90.00" type="DEFAULT_VEHTYPE" speed="8.38" pos="24.51" lane="A2B2_0" slope="0.00"/>
        <vehicle id="2" x="180.66" y="1.60" angle="270.00" type="DEFAULT_VEHTYPE" speed="6.10" pos="16.14" lane="C0B0_0" slope="0.00"/>
        <vehicle id="3" x="201.60" y="117.24" angle="0.00" type="DEFAULT_VEHTYPE" speed="3.63" pos="10.04" lane="C1C2_0" slope="0.00"/>
        <vehicle id="4" x="86.39" y="101.60" angle="270.00" type="DEFAULT_VEHTYPE" speed="1.31" pos="6.41" lane="B1A1_0" slope="0.00"/>
        <vehicle id="5" x="-1.60" y="191.70" angle="180.00" type="DEFAULT_VEHTYPE" speed="0.00" pos="5.10" lane="A2A1_0" slope="0.00"/>
    </timestep>
    <timestep time="6.00">
        <vehicle id="0" x="98.40" y="146.76" angle="180.00" type="DEFAULT_VEHTYPE" speed="11.72" pos="46.04" lane="B2B1_0" slope="0.00"/>
        <vehicle id="1" x="37.52" y="198.40" angle="90.00" type="DEFAULT_VEHTYPE" speed="9.81" pos="34.32" lane="A2B2_0" slope="0.00"/>
        <vehicle id="2" x="172.29" y="1.60" angle="270.00" type="DEFAULT_VEHTYPE" speed="8.38" pos="24.51" lane="C0B0_0" slope="0.00"/>
        <vehicle id="3" x="201.60" y="123.34" angle="0.00" type="DEFAULT_VEHTYPE" speed="6.10" pos="16.14" lane="C1C2_0" slope="0.00"/>
        <vehicle id="4" x="82.76" y="101.60" angle="270.00" type="DEFAULT_VEHTYPE" speed="3.63" pos="10.04" lane="B1A1_0" slope="0.00"/>
        <vehicle id="5" x="-1.60" y="190.39" angle="180.00" type="DEFAULT_VEHTYPE" speed="1.31" pos="6.41" lane="A2A1_0" slope="0.00"/>
        <vehicle id="6" x="1.60" y="8.30" angle="0.00" type="DEFAULT_VEHTYPE" speed="0.00" pos="5.10" lane="A0A1_0" slope="0.00"/>
    </timestep>
    <timestep time="7.00">
        <vehicle id="0" x="98.40" y="134.36" angle="180.00" type="DEFAULT_VEHTYPE" speed="12.41" pos="58.44" lane="B2B1_0" slope="0.00"/>
        <vehicle id="1" x="49.24" y="198.40" angle="90.00" type="DEFAULT_VEHTYPE" speed="11.72" pos="46.04" lane="A2B2_0" slope="0.00"/>
        <vehicle id="2" x="162.48" y="1.60" angle="270.00" type="DEFAULT_VEHTYPE" speed="9.81" pos="34.32" lane="C0B0_0" slope="0.00"/>
        <vehicle id="3" x="201.60" y="131.71" angle="0.00" type="DEFAULT_VEHTYPE" speed="8.38" pos="24.51" lane="C1C2_0" slope="0.00"/>
        <vehicle id="4" x="76.66" y="101.60" angle="270.00" type="DEFAULT_VEHTYPE" speed="6.10" pos="16.14" lane="B1A1_0" slope="0.00"/>
        <vehicle id="5" x="-1.60" y="186.76" angle="180.00" type="DEFAULT_VEHTYPE" speed="3.63" pos="10.04" lane="A2A1_0" slope="0.00"/>
        <vehicle id="6" x="1.60" y="9.61" angle="0.00" type="DEFAULT_VEHTYPE" speed="1.31" pos="6.41" lane="A0A1_0" slope="0.00"/>
        <vehicle id="7" x="98.40" y="187.70" angle="180.00" type="DEFAULT_VEHTYPE" speed="0.00" pos="5.10" lane="B2B1_0" slope="0.00"/>
    </timestep>
    <timestep time="8.00">
        <vehicle id="0" x="98.40" y="121.43" angle="180.00" type="DEFAULT_VEHTYPE" speed="12.92" pos="71.37" lane="B2B1_0" slope="0.00"/>
        <vehicle id="1" x="62.65" y="198.40" angle="90.00" type="DEFAULT_VEHTYPE" speed="13.41" pos="59.45" lane="A2B2_0" slope="0.00"/>
        <vehicle id="2" x="150.76" y="1.60" angle="270.00" type="DEFAULT_VEHTYPE" speed="11.72" pos="46.04" lane="C0B0_0" slope="0.00"/>
        <vehicle id="3" x="201.60" y="141.52" angle="0.00" type="DEFAULT_VEHTYPE" speed="9.81" pos="34.32" lane="C1C2_0" slope="0.00"/>
        <vehicle id="4" x="68.29" y="101.60" angle="270.00" type="DEFAULT_VEHTYPE" speed="8.38" pos="24.51" lane="B1A1_0" slope="0.00"/>
        <vehicle id="5" x="-1.60" y="180.66" angle="180.00" type="DEFAULT_VEHTYPE" speed="6.10" pos="16.14" lane="A2A1_0" slope="0.00"/>
        <vehicle id="6" x="1.60" y="13.24" angle="0.00" type="DEFAULT_VEHTYPE" speed="3.63" pos="10.04" lane="A0A1_0" slope="0.00"/>
        <vehicle id="7" x="98.40" y="186.40" angle="180.00" type="DEFAULT_VEHTYPE" speed="1.30" pos="6.40" lane="B2B1_0" slope="0.00"/>
        <vehicle id="8" x="-1.60" y="191.70" angle="180.00" type="DEFAULT_VEHTYPE" speed="0.00" pos="5.10" lane="A2A1_0" slope="0.00"/>
    </timestep>
    <timestep time="9.00">
        <vehicle id="0" x="98.40" y="108.38" angle="180.00" type="DEFAULT_VEHTYPE" speed="13.05" pos="84.42" lane="B2B1_0" slope="0.00"/>
        <vehicle id="1" x="76.82" y="198.40" angle="90.00" type="DEFAULT_VEHTYPE" speed="14.16" pos="73.62" lane="A2B2_0" slope="0.00"/>
        <vehicle id="2" x="137.35" y="1.60" angle="270.00" type="DEFAULT_VEHTYPE" speed="13.41" pos="59.45" lane="C0B0_0" slope="0.00"/>
        <vehicle id="3" x="201.60" y="153.24" angle="0.00" type="DEFAULT_VEHTYPE" speed="11.72" pos="46.04" lane="C1C2_0" slope="0.00"/>
        <vehicle id="4" x="58.48" y="101.60" angle="270.00" type="DEFAULT_VEHTYPE" speed="9.81" pos="34.32" lane="B1A1_0" slope="0.00"/>
        <vehicle id="5" x="-1.60" y="172.29" angle="180.00" type="DEFAULT_VEHTYPE" speed="8.38" pos="24.51" lane="A2A1_0" slope="0.00"/>
        <vehicle id="6" x="1.60" y="19.34" angle="0.00" type="DEFAULT_VEHTYPE" speed="6.10" pos="16.14" lane="A0A1_0" slope="0.00"/>
        <vehicle id="7" x="98.40" y="182.75" angle="180.00" type="DEFAULT_VEHTYPE" speed="3.64" pos="10.05" lane="B2B1_0" slope="0.00"/>
        <vehicle id="8" x="-1.60" y="190.27" angle="180.00" type="DEFAULT_VEHTYPE" speed="1.43" pos="6.53" lane="A2A1_0" slope="0.00"/>
        <vehicle id="9" x="187.70" y="101.60" angle="270.00" type="DEFAULT_VEHTYPE" speed="0.00" pos="5.10" lane="C1B1_0" slope="0.00"/>
    </timestep>
    <timestep time="10.00">
        <vehicle id="0" x="98.40" y="95.43" angle="180.00" type="DEFAULT_VEHTYPE" speed="12.95" pos="11.77" lane=":B1_1_0" slope="0.00"/>
        <vehicle id="1" x="86.48" y="198.40" angle="90.00" type="DEFAULT_VEHTYPE" speed="9.66" pos="83.28" lane="A2B2_0" slope="0.00"/>
        <vehicle id="2" x="122.39" y="1.60" angle="270.00" type="DEFAULT_VEHTYPE" speed="14.96" pos="74.41" lane="C0B0_0" slope="0.00"/>
        <vehicle id="3" x="201.60" y="165.02" angle="0.00" type="DEFAULT_VEHTYPE" speed="11.79" pos="57.82" lane="C1C2_0" slope="0.00"/>
        <vehicle id="4" x="46.80" y="101.60" angle="270.00" type="DEFAULT_VEHTYPE" speed="11.68" pos="46.00" lane="B1A1_0" slope="0.00"/>
        <vehicle id="5" x="-1.60" y="162.00" angle="180.00" type="DEFAULT_VEHTYPE" speed="10.29" pos="34.80" lane="A2A1_0" slope="0.00"/>
        <vehicle id="6" x="1.60" y="27.71" angle="0.00" type="DEFAULT_VEHTYPE" speed="8.38" pos="24.51" lane="A0A1_0" slope="0.00"/>
        <vehicle id="7" x="98.40" y="176.82" angle="180.00" type="DEFAULT_VEHTYPE" speed="5.93" pos="15.98" lane="B2B1_0" slope="0.00"/>
        <vehicle id="8" x="-1.60" y="187.14" angle="180.00" type="DEFAULT_VEHTYPE" speed="3.13" pos="9.66" lane="A2A1_0" slope="0.00"/>
        <vehicle id="9" x="186.39" y="101.60" angle="270.00" type="DEFAULT_VEHTYPE" speed="1.31" pos="6.41" lane="C1B1_0" slope="0.00"/>
    </timestep>
    <timestep time="11.00">
        <vehicle id="0" x="98.40" y="82.39" angle="180.00" type="DEFAULT_VEHTYPE" speed="13.05" pos="10.41" lane="B1B0_0" slope="0.00"/>
        <vehicle id="1" x="92.30" y="198.40" angle="90.00" type="DEFAULT_VEHTYPE" speed="5.82" pos="89.10" lane="A2B2_0" slope="0.00"/>
        <vehicle id="2" x="111.93" y="1.60" angle="270.00" type="DEFAULT_VEHTYPE" speed="10.46" pos="84.87" lane="C0B0_0" slope="0.00"/>
        <vehicle id="3" x="201.60" y="177.33" angle="0.00" type="DEFAULT_VEHTYPE" speed="12.30" pos="70.13" lane="C1C2_0" slope="0.00"/>
        <vehicle id="4" x="35.33" y="101.60" angle="270.00" type="DEFAULT_VEHTYPE" speed="11.47" pos="57.47" lane="B1A1_0" slope="0.00"/>
        <vehicle id="5" x="-1.60" y="149.50" angle="180.00" type="DEFAULT_VEHTYPE" speed="12.50" pos="47.30" lane="A2A1_0" slope="0.00"/>
        <vehicle id="6" x="1.60" y="37.52" angle="0.00" type="DEFAULT_VEHTYPE" speed="9.81" pos="34.32" lane="A0A1_0" slope="0.00"/>
        <vehicle id="7" x="98.40" y="168.30" angle="180.00" type="DEFAULT_VEHTYPE" speed="8.53" pos="24.50" lane="B2B1_0" slope="0.00"/>
        <vehicle id="8" x="-1.60" y="182.71" angle="180.00" type="DEFAULT_VEHTYPE" speed="4.43" pos="14.09" lane="A2A1_0" slope="0.00"/>
        <vehicle id="9" x="182.76" y="101.60" angle="270.00" type="DEFAULT_VEHTYPE" speed="3.63" pos="10.04" lane="C1B1_0" slope="0.00"/>
    </timestep>
    <timestep time="12.00">
        <vehicle id="0" x="98.40" y="70.37" angle="180.00" type="DEFAULT_VEHTYPE" speed="12.01" pos="22.43" lane="B1B0_0" slope="0.00"/>
        <vehicle id="1" x="94.00" y="200.80" angle="50.94" type="DEFAULT_VEHTYPE" speed="3.73" pos="1.79" lane=":B2_11_0" slope="0.00"/>
        <vehicle id="10" x="187.70" y="101.60" angle="270.00" type="DEFAULT_VEHTYPE" speed="0.00" pos="5.10" lane="C1B1_0" slope="0.00"/>
        <vehicle id="2" x="105.03" y="1.91" angle="273.57" type="DEFAULT_VEHTYPE" speed="6.93" pos="2.20" lane=":B0_3_0" slope="0.00"/>
        <vehicle id="3" x="201.60" y="188.02" angle="0.00" type="DEFAULT_VEHTYPE" speed="10.69" pos="80.82" lane="C1C2_0" slope="0.00"/>
        <vehicle id="4" x="23.34" y="101.60" angle="270.00" type="DEFAULT_VEHTYPE" speed="11.99" pos="69.46" lane="B1A1_0" slope="0.00"/>
        <vehicle id="5" x="-1.60" y="135.31" angle="180.00" type="DEFAULT_VEHTYPE" speed="14.19" pos="61.49" lane="A2A1_0" slope="0.00"/>
        <vehicle id="6" x="1.60" y="49.24" angle="0.00" type="DEFAULT_VEHTYPE" speed="11.72" pos="46.04" lane="A0A1_0" slope="0.00"/>
        <vehicle id="7" x="98.40" y="157.56" angle="180.00" type="DEFAULT_VEHTYPE" speed="10.74" pos="35.24" lane="B2B1_0" slope="0.00"/>
        <vehicle id="8" x="-1.60" y="175.93" angle="180.00" type="DEFAULT_VEHTYPE" speed="6.77" pos="20.87" lane="A2A1_0" slope="0.00"/>
        <vehicle id="9" x="176.66" y="101.60" angle="270.00" type="DEFAULT_VEHTYPE" speed="6.10" pos="16.14" lane="C1B1_0" slope="0.00"/>
    </timestep>
    <timestep time="13.00">
        <vehicle id="0" x="98.40" y="57.34" angle="180.00" type="DEFAULT_VEHTYPE" speed="13.04" pos="35.46" lane="B1B0_0" slope="0.00"/>
        <vehicle id="1" x="91.54" y="201.60" angle="322.75" type="DEFAULT_VEHTYPE" speed="2.70" pos="1.26" lane="B2A2_0" slope="0.00"/>
        <vehicle id="10" x="186.27" y="101.60" angle="270.00" type="DEFAULT_VEHTYPE" speed="1.43" pos="6.53" lane="C1B1_0" slope="0.00"/>
        <vehicle id="2" x="101.73" y="6.27" angle="328.15" type="DEFAULT_VEHTYPE" speed="5.90" pos="8.09" lane=":B0_3_0" slope="0.00"/>
        <vehicle id="3" x="201.60" y="196.54" angle="0.00" type="DEFAULT_VEHTYPE" speed="8.52" pos="89.34" lane="C1C2_0" slope="0.00"/>
        <vehicle id="4" x="14.79" y="101.60" angle="270.00" type="DEFAULT_VEHTYPE" speed="8.55" pos="78.01" lane="B1A1_0" slope="0.00"/>
        <vehicle id="5" x="-1.60" y="121.22" angle="180.00" type="DEFAULT_VEHTYPE" speed="14.09" pos="75.58" lane="A2A1_0" slope="0.00"/>
        <vehicle id="6" x="1.60" y="61.26" angle="0.00" type="DEFAULT_VEHTYPE" speed="12.02" pos="58.06" lane="A0A1_0" slope="0.00"/>
        <vehicle id="7" x="98.40" y="145.19" angle="180.00" type="DEFAULT_VEHTYPE" speed="12.36" pos="47.61" lane="B2B1_0" slope="0.00"/>
        <vehicle id="8" x="-1.60" y="166.88" angle="180.00" type="DEFAULT_VEHTYPE" speed="9.06" pos="29.92" lane="A2A1_0" slope="0.00"/>
        <vehicle id="9" x="168.29" y="101.60" angle="270.00" type="DEFAULT_VEHTYPE" speed="8.38" pos="24.51" lane="C1B1_0" slope="0.00"/>
    </timestep>
    <timestep time="14.00">
        <vehicle id="0" x="98.40" y="44.16" angle="180.00" type="DEFAULT_VEHTYPE" speed="13.17" pos="48.64" lane="B1B0_0" slope="0.00"/>
        <vehicle id="1" x="87.53" y="201.60" angle="270.00" type="DEFAULT_VEHTYPE" speed="4.00" pos="5.27" lane="B2A2_0" slope="0.00"/>
        <vehicle id="10" x="183.14" y="101.60" angle="270.00" type="DEFAULT_VEHTYPE" speed="3.13" pos="9.66" lane="C1B1_0" slope="0.00"/>
        <vehicle id="14" x="198.40" y="87.70" angle="180.00" type="DEFAULT_VEHTYPE" speed="0.00" pos="5.10" lane="C1C0_0" slope="0.00"/>
        <vehicle id="2" x="101.60" y="13.18" angle="0.00" type="DEFAULT_VEHTYPE" speed="6.92" pos="5.98" lane="B0B1_0" slope="0.00"/>
        <vehicle id="3" x="199.40" y="201.00" angle="332.22" type="DEFAULT_VEHTYPE" speed="5.29" pos="5.04" lane=":C2_0_0" slope="0.00"/>
        <vehicle id="4" x="9.05" y="101.60" angle="270.00" type="DEFAULT_VEHTYPE" speed="5.73" pos="83.75" lane="B1A1_0" slope="0.00"/>
        <vehicle id="5" x="-1.60" y="110.73" angle="180.00" type="DEFAULT_VEHTYPE" speed="10.49" pos="86.07" lane="A2A1_0" slope="0.00"/>
        <vehicle id="6" x="1.60" y="73.80" angle="0.00" type="DEFAULT_VEHTYPE" speed="12.54" pos="70.60" lane="A0A1_0" slope="0.00"/>
        <vehicle id="7" x="98.40" y="131.97" angle="180.00" type="DEFAULT_VEHTYPE" speed="13.22" pos="60.83" lane="B2B1_0" slope="0.00"/>
        <vehicle id="8" x="-1.60" y="155.60" angle="180.00" type="DEFAULT_VEHTYPE" speed="11.27" pos="41.20" lane="A2A1_0" slope="0.00"/>
        <vehicle id="9" x="158.00" y="101.60" angle="270.00" type="DEFAULT_VEHTYPE" speed="10.29" pos="34.80" lane="C1B1_0" slope="0.00"/>
    </timestep>
    <timestep time="15.00">
        <vehicle id="0" x="98.40" y="31.18" angle="180.00" type="DEFAULT_VEHTYPE" speed="12.99" pos="61.62" lane="B1B0_0" slope="0.00"/>
        <vehicle id="1" x="81.20" y="201.60" angle="270.00" type="DEFAULT_VEHTYPE" speed="6.33" pos="11.60" lane="B2A2_0" slope="0.00"/>
        <vehicle id="10" x="178.71" y="101.60" angle="270.00" type="DEFAULT_VEHTYPE" speed="4.43" pos="14.09" lane="C1B1_0" slope="0.00"/>
        <vehicle id="11" x="101.60" y="12.30" angle="0.00" type="DEFAULT_VEHTYPE" speed="0.00" pos="5.10" lane="B0B1_0" slope="0.00"/>
        <vehicle id="14" x="198.40" y="86.39" angle="180.00" type="DEFAULT_VEHTYPE" speed="1.31" pos="6.41" lane="C1C0_0" slope="0.00"/>
        <vehicle id="15" x="187.70" y="101.60" angle="270.00" type="DEFAULT_VEHTYPE" speed="0.00" pos="5.10" lane="C1B1_0" slope="0.00"/>
        <vehicle id="2" x="101.60" y="21.40" angle="0.00" type="DEFAULT_VEHTYPE" speed="8.22" pos="14.20" lane="B0B1_0" slope="0.00"/>
        <vehicle id="3" x="195.25" y="201.60" angle="281.58" type="DEFAULT_VEHTYPE" speed="4.26" pos="1.55" lane="C2B2_0" slope="0.00"/>
        <vehicle id="4" x="7.48" y="101.60" angle="270.00" type="DEFAULT_VEHTYPE" speed="1.58" pos="85.32" lane="B1A1_0" slope="0.00"/>
        <vehicle id="5" x="-1.25" y="104.76" angle="175.99" type="DEFAULT_VEHTYPE" speed="5.99" pos="2.47" lane=":A1_1_0" slope="0.00"/>
        <vehicle id="6" x="1.60" y="84.25" angle="0.00" type="DEFAULT_VEHTYPE" speed="10.46" pos="81.05" lane="A0A1_0" slope="0.00"/>
        <vehicle id="7" x="98.40" y="119.80" angle="180.00" type="DEFAULT_VEHTYPE" speed="12.17" pos="73.00" lane="B2B1_0" slope="0.00"/>
        <vehicle id="8" x="-1.60" y="141.78" angle="180.00" type="DEFAULT_VEHTYPE" speed="13.82" pos="55.02" lane="A2A1_0" slope="0.00"/>
        <vehicle id="9" x="145.50" y="101.60" angle="270.00" type="DEFAULT_VEHTYPE" speed="12.50" pos="47.30" lane="C1B1_0" slope="0.00"/>
    </timestep>
    <timestep time="16.00">
        <vehicle id="0" x="98.40" y="19.89" angle="180.00" type="DEFAULT_VEHTYPE" speed="11.29" pos="72.91" lane="B1B0_0" slope="0.00"/>
        <vehicle id="1" x="72.41" y="201.60" angle="270.00" type="DEFAULT_VEHTYPE" speed="8.80" pos="20.39" lane="B2A2_0" slope="0.00"/>
        <vehicle id="10" x="171.93" y="101.60" angle="270.00" type="DEFAULT_VEHTYPE" speed="6.77" pos="20.87" lane="C1B1_0" slope="0.00"/>
        <vehicle id="11" x="101.60" y="14.76" angle="0.00" type="DEFAULT_VEHTYPE" speed="2.46" pos="7.56" lane="B0B1_0" slope="0.00"/>
        <vehicle id="14" x="198.40" y="82.76" angle="180.00" type="DEFAULT_VEHTYPE" speed="3.63" pos="10.04" lane="C1C0_0" slope="0.00"/>
        <vehicle id="15" x="186.41" y="101.60" angle="270.00" type="DEFAULT_VEHTYPE" speed="1.29" pos="6.39" lane="C1B1_0" slope="0.00"/>
        <vehicle id="2" x="101.60" y="31.95" angle="0.00" type="DEFAULT_VEHTYPE" speed="10.55" pos="24.75" lane="B0B1_0" slope="0.00"/>
        <vehicle id="3" x="189.68" y="201.60" angle="270.00" type="DEFAULT_VEHTYPE" speed="5.57" pos="7.12" lane="C2B2_0" slope="0.00"/>
        <vehicle id="4" x="7.33" y="101.60" angle="270.00" type="DEFAULT_VEHTYPE" speed="0.15" pos="85.47" lane="B1A1_0" slope="0.00"/>
        <vehicle id="5" x="-1.02" y="103.29" angle="173.28" type="DEFAULT_VEHTYPE" speed="1.49" pos="3.96" lane=":A1_1_0" slope="0.00"/>
        <vehicle id="6" x="1.60" y="92.54" angle="0.00" type="DEFAULT_VEHTYPE" speed="8.29" pos="89.34" lane="A0A1_0" slope="0.00"/>
        <vehicle id="7" x="98.40" y="111.04" angle="180.00" type="DEFAULT_VEHTYPE" speed="8.76" pos="81.76" lane="B2B1_0" slope="0.00"/>
        <vehicle id="8" x="-1.60" y="128.37" angle="180.00" type="DEFAULT_VEHTYPE" speed="13.41" pos="68.43" lane="A2A1_0" slope="0.00"/>
        <vehicle id="9" x="132.11" y="101.60" angle="270.00" type="DEFAULT_VEHTYPE" speed="13.39" pos="60.69" lane="C1B1_0" slope="0.00"/>
    </timestep>
    <timestep time="17.00">
        <vehicle id="0" x="98.40" y="12.04" angle="180.00" type="DEFAULT_VEHTYPE" speed="7.85" pos="80.76" lane="B1B0_0" slope="0.00"/>
        <vehicle id="1" x="61.33" y="201.60" angle="270.00" type="DEFAULT_VEHTYPE" speed="11.08" pos="31.47" lane="B2A2_0" slope="0.00"/>
        <vehicle id="10" x="162.56" y="101.60" angle="270.00" type="DEFAULT_VEHTYPE" speed="9.37" pos="30.24" lane="C1B1_0" slope="0.00"/>
        <vehicle id="11" x="101.60" y="18.66" angle="0.00" type="DEFAULT_VEHTYPE" speed="3.90" pos="11.46" lane="B0B1_0" slope="0.00"/>
        <vehicle id="12" x="191.70" y="201.60" angle="270.00" type="DEFAULT_VEHTYPE" speed="0.00" pos="5.10" lane="C2B2_0" slope="0.00"/>
        <vehicle id="13" x="-1.60" y="87.70" angle="180.00" type="DEFAULT_VEHTYPE" speed="0.00" pos="5.10" lane="A1A0_0" slope="0.00"/>
        <vehicle id="14" x="198.40" y="76.66" angle="180.00" type="DEFAULT_VEHTYPE" speed="6.10" pos="16.14" lane="C1C0_0" slope="0.00"/>
        <vehicle id="15" x="182.91" y="101.60" angle="270.00" type="DEFAULT_VEHTYPE" speed="3.50" pos="9.89" lane="C1B1_0" slope="0.00"/>
        <vehicle id="17" x="112.30" y="-1.60" angle="90.00" type="DEFAULT_VEHTYPE" speed="0.00" pos="5.10" lane="B0C0_0" slope="0.00"/>
        <vehicle id="2" x="101.60" y="44.78" angle="0.00" type="DEFAULT_VEHTYPE" speed="12.83" pos="37.58" lane="B0B1_0" slope="0.00"/>
        <vehicle id="3" x="181.79" y="201.60" angle="270.00" type="DEFAULT_VEHTYPE" speed="7.89" pos="15.01" lane="C2B2_0" slope="0.00"/>
        <vehicle id="4" x="7.30" y="101.60" angle="270.00" type="DEFAULT_VEHTYPE" speed="0.02" pos="85.50" lane="B1A1_0" slope="0.00"/>
        <vehicle id="5" x="-1.01" y="103.29" angle="173.22" type="DEFAULT_VEHTYPE" speed="0.01" pos="3.97" lane=":A1_1_0" slope="0.00"/>
        <vehicle id="6" x="3.88" y="97.53" angle="27.69" type="DEFAULT_VEHTYPE" speed="5.80" pos="5.54" lane=":A1_6_0" slope="0.00"/>
        <vehicle id="7" x="98.58" y="105.96" angle="177.96" type="DEFAULT_VEHTYPE" speed="5.10" pos="1.26" lane=":B1_2_0" slope="0.00"/>
        <vehicle id="8" x="-1.60" y="119.25" angle="180.00" type="DEFAULT_VEHTYPE" speed="9.11" pos="77.55" lane="A2A1_0" slope="0.00"/>
        <vehicle id="9" x="119.66" y="101.60" angle="270.00" type="DEFAULT_VEHTYPE" speed="12.46" pos="73.14" lane="C1B1_0" slope="0.00"/>
    </timestep>
    <timestep time="18.00">
        <vehicle id="0" x="98.40" y="8.32" angle="180.00" type="DEFAULT_VEHTYPE" speed="3.71" pos="84.48" lane="B1B0_0" slope="0.00"/>
        <vehicle id="1" x="48.82" y="201.60" angle="270.00" type="DEFAULT_VEHTYPE" speed="12.51" pos="43.98" lane="B2A2_0" slope="0.00"/>
        <vehicle id="10" x="150.64" y="101.60" angle="270.00" type="DEFAULT_VEHTYPE" speed="11.92" pos="42.16" lane="C1B1_0" slope="0.00"/>
        <vehicle id="11" x="101.60" y="24.25" angle="0.00" type="DEFAULT_VEHTYPE" speed="5.59" pos="17.05" lane="B0B1_0" slope="0.00"/>
        <vehicle id="12" x="189.42" y="201.60" angle="270.00" type="DEFAULT_VEHTYPE" speed="2.28" pos="7.38" lane="C2B2_0" slope="0.00"/>
        <vehicle id="13" x="-1.60" y="86.39" angle="180.00" type="DEFAULT_VEHTYPE" speed="1.31" pos="6.41" lane="A1A0_0" slope="0.00"/>
        <vehicle id="14" x="198.40" y="68.29" angle="180.00" type="DEFAULT_VEHTYPE" speed="8.38" pos="24.51" lane="C1C0_0" slope="0.00"/>
        <vehicle id="15" x="177.91" y="101.60" angle="270.00" type="DEFAULT_VEHTYPE" speed="5.00" pos="14.89" lane="C1B1_0" slope="0.00"/>
        <vehicle id="17" x="113.61" y="-1.60" angle="90.00" type="DEFAULT_VEHTYPE" speed="1.31" pos="6.41" lane="B0C0_0" slope="0.00"/>
        <vehicle id="18" x="187.70" y="101.60" angle="270.00" type="DEFAULT_VEHTYPE" speed="0.00" pos="5.10" lane="C1B1_0" slope="0.00"/>
        <vehicle id="2" x="101.60" y="59.43" angle="0.00" type="DEFAULT_VEHTYPE" speed="14.65" pos="52.23" lane="B0B1_0" slope="0.00"/>
        <vehicle id="3" x="171.43" y="201.60" angle="270.00" type="DEFAULT_VEHTYPE" speed="10.36" pos="25.37" lane="C2B2_0" slope="0.00"/>
        <vehicle id="4" x="7.30" y="101.60" angle="270.00" type="DEFAULT_VEHTYPE" speed="0.00" pos="85.50" lane="B1A1_0" slope="0.00"/>
        <vehicle id="5" x="-1.01" y="103.29" angle="173.22" type="DEFAULT_VEHTYPE" speed="0.00" pos="3.97" lane=":A1_1_0" slope="0.00"/>
        <vehicle id="6" x="9.49" y="98.40" angle="84.57" type="DEFAULT_VEHTYPE" speed="5.78" pos="2.29" lane="A1B1_0" slope="0.00"/>
        <vehicle id="7" x="98.78" y="104.56" angle="175.65" type="DEFAULT_VEHTYPE" speed="1.42" pos="2.67" lane=":B1_2_0" slope="0.00"/>
        <vehicle id="8" x="-1.60" y="113.80" angle="180.00" type="DEFAULT_VEHTYPE" speed="5.45" pos="83.00" lane="A2A1_0" slope="0.00"/>
        <vehicle id="9" x="111.70" y="101.60" angle="270.00" type="DEFAULT_VEHTYPE" speed="7.96" pos="81.10" lane="C1B1_0" slope="0.00"/>
    </timestep>
    <timestep time="19.00">
        <vehicle id="0" x="96.81" y="2.89" angle="199.11" type="DEFAULT_VEHTYPE" speed="5.85" pos="4.73" lane=":B0_0_0" slope="0.00"/>
        <vehicle id="1" x="34.41" y="201.60" angle="270.00" type="DEFAULT_VEHTYPE" speed="14.42" pos="58.39" lane="B2A2_0" slope="0.00"/>
        <vehicle id="10" x="137.18" y="101.60" angle="270.00" type="DEFAULT_VEHTYPE" speed="13.46" pos="55.62" lane="C1B1_0" slope="0.00"/>
        <vehicle id="11" x="101.60" y="31.15" angle="0.00" type="DEFAULT_VEHTYPE" speed="6.90" pos="23.95" lane="B0B1_0" slope="0.00"/>
        <vehicle id="12" x="185.23" y="201.60" angle="270.00" type="DEFAULT_VEHTYPE" speed="4.19" pos="11.57" lane="C2B2_0" slope="0.00"/>
        <vehicle id="13" x="-1.60" y="82.76" angle="180.00" type="DEFAULT_VEHTYPE" speed="3.63" pos="10.04" lane="A1A0_0" slope="0.00"/>
        <vehicle id="14" x="198.40" y="58.48" angle="180.00" type="DEFAULT_VEHTYPE" speed="9.81" pos="34.32" lane="C1C0_0" slope="0.00"/>
        <vehicle id="15" x="170.57" y="101.60" angle="270.00" type="DEFAULT_VEHTYPE" speed="7.35" pos="22.23" lane="C1B1_0" slope="0.00"/>
        <vehicle id="17" x="117.24" y="-1.60" angle="90.00" type="DEFAULT_VEHTYPE" speed="3.63" pos="10.04" lane="B0C0_0" slope="0.00"/>
        <vehicle id="18" x="186.31" y="101.60" angle="270.00" type="DEFAULT_VEHTYPE" speed="1.39" pos="6.49" lane="C1B1_0" slope="0.00"/>
        <vehicle id="19" x="198.40" y="87.70" angle="180.00" type="DEFAULT_VEHTYPE" speed="0.00" pos="5.10" lane="C1C0_0" slope="0.00"/>
        <vehicle id="2" x="101.60" y="74.39" angle="0.00" type="DEFAULT_VEHTYPE" speed="14.96" pos="67.19" lane="B0B1_0" slope="0.00"/>
        <vehicle id="3" x="159.91" y="201.60" angle="270.00" type="DEFAULT_VEHTYPE" speed="11.52" pos="36.89" lane="C2B2_0" slope="0.00"/>
        <vehicle id="4" x="7.30" y="101.60" angle="270.00" type="DEFAULT_VEHTYPE" speed="0.00" pos="85.50" lane="B1A1_0" slope="0.00"/>
        <vehicle id="5" x="0.16" y="101.33" angle="161.12" type="DEFAULT_VEHTYPE" speed="2.28" pos="2.18" lane=":A1_9_0" slope="0.00"/>
        <vehicle id="6" x="16.58" y="98.40" angle="90.00" type="DEFAULT_VEHTYPE" speed="7.09" pos="9.38" lane="A1B1_0" slope="0.00"/>
        <vehicle id="7" x="98.94" y="103.41" angle="173.77" type="DEFAULT_VEHTYPE" speed="1.16" pos="3.83" lane=":B1_2_0" slope="0.00"/>
        <vehicle id="8" x="-1.60" y="110.99" angle="180.00" type="DEFAULT_VEHTYPE" speed="2.81" pos="85.81" lane="A2A1_0" slope="0.00"/>
        <vehicle id="9" x="108.25" y="101.60" angle="270.00" type="DEFAULT_VEHTYPE" speed="3.46" pos="84.55" lane="C1B1_0" slope="0.00"/>
    </timestep>
    <timestep time="20.00">
        <vehicle id="0" x="91.00" y="1.60" angle="261.58" type="DEFAULT_VEHTYPE" speed="6.10" pos="1.80" lane="B0A0_0" slope="0.00"/>
        <vehicle id="1" x="20.12" y="201.60" angle="270.00" type="DEFAULT_VEHTYPE" speed="14.29" pos="72.68" lane="B2A2_0" slope="0.00"/>
        <vehicle id="10" x="126.52" y="101.60" angle="270.00" type="DEFAULT_VEHTYPE" speed="10.65" pos="66.28" lane="C1B1_0" slope="0.00"/>
        <vehicle id="11" x="101.60" y="40.39" angle="0.00" type="DEFAULT_VEHTYPE" speed="9.24" pos="33.19" lane="B0B1_0" slope="0.00"/>
        <vehicle id="12" x="178.83" y="201.60" angle="270.00" type="DEFAULT_VEHTYPE" speed="6.40" pos="17.97" lane="C2B2_0" slope="0.00"/>
        <vehicle id="13" x="-1.60" y="76.66" angle="180.00" type="DEFAULT_VEHTYPE" speed="6.10" pos="16.14" lane="A1A0_0" slope="0.00"/>
        <vehicle id="14" x="198.40" y="46.76" angle="180.00" type="DEFAULT_VEHTYPE" speed="11.72" pos="46.04" lane="C1C0_0" slope="0.00"/>
        <vehicle id="15" x="161.30" y="101.60" angle="270.00" type="DEFAULT_VEHTYPE" speed="9.27" pos="31.50" lane="C1B1_0" slope="0.00"/>
        <vehicle id="17" x="123.34" y="-1.60" angle="90.00" type="DEFAULT_VEHTYPE" speed="6.10" pos="16.14" lane="B0C0_0" slope="0.00"/>
        <vehicle id="18" x="183.12" y="101.60" angle="270.00" type="DEFAULT_VEHTYPE" speed="3.19" pos="9.68" lane="C1B1_0" slope="0.00"/>
        <vehicle id="19" x="198.40" y="86.00" angle="180.00" type="DEFAULT_VEHTYPE" speed="1.70" pos="6.80" lane="C1C0_0" slope="0.00"/>
        <vehicle id="2" x="101.60" y="89.47" angle="0.00" type="DEFAULT_VEHTYPE" speed="15.08" pos="82.27" lane="B0B1_0" slope="0.00"/>
        <vehicle id="20" x="112.30" y="198.40" angle="90.00" type="DEFAULT_VEHTYPE" speed="0.00" pos="5.10" lane="B2C2_0" slope="0.00"/>
        <vehicle id="3" x="148.12" y="201.60" angle="270.00" type="DEFAULT_VEHTYPE" speed="11.79" pos="48.68" lane="C2B2_0" slope="0.00"/>