<?xml version="1.0" encoding="UTF-8"?>

<!-- generated on 2025-12-20 15:44:20 by Eclipse SUMO sumo Version 1.23.1
<sumoConfiguration xmlns:xsi="http://www.w3.org/2001/XMLSchema-instance" xsi:noNamespaceSchemaLocation="http://sumo.dlr.de/xsd/sumoConfiguration.xsd">

    <input>
        <net-file value="F:\sumo-mcp\tests\test_outputs\manual_check\grid.net.xml"/>
        <route-files value="F:\sumo-mcp\tests\test_outputs\manual_check\routes.xml"/>
    </input>

    <output>
        <fcd-output value="F:\sumo-mcp\tests\test_outputs\manual_check\signal_opt\baseline_fcd.xml"/>
    </output>

    <time>
        <begin value="0"/>
        <end value="100"/>
    </time>

    <report>
        <no-step-log value="true"/>
    </report>

    <traci_server>
        <remote-port value="53459"/>
    </traci_server>

    <random_number>
        <random value="true"/>
    </random_number>

</sumoConfiguration>
-->

<fcd-export xmlns:xsi="http://www.w3.org/2001/XMLSchema-instance" xsi:noNamespaceSchemaLocation="http://sumo.dlr.de/xsd/fcd_file.xsd">
    <timestep time="0.00">
        <vehicle id="0" x="98.40" y="187.70" angle="180.00" type="DEFAULT_VEHTYPE" speed="0.00" pos="5.10" lane="B2B1_0" slope="0.00"/>
    </timestep>
    <timestep time="1.00">
        <vehicle id="0" x="98.40" y="185.79" angle="180.00" type="DEFAULT_VEHTYPE" speed="1.91" pos="7.01" lane="B2B1_0" slope="0.00"/>
        <vehicle id="1" x="8.30" y="198.40" angle="90.00" type="DEFAULT_VEHTYPE" speed="0.00" pos="5.10" lane="A2B2_0" slope="0.00"/>
    </timestep>
    <timestep time="2.00">
        <vehicle id="0" x="98.40" y="182.16" angle="180.00" type="DEFAULT_VEHTYPE" speed="3.63" pos="10.64" lane="B2B1_0" slope="0.00"/>
        <vehicle id="1" x="10.21" y="198.40" angle="90.00" type="DEFAULT_VEHTYPE" speed="1.91" pos="7.01" lane="A2B2_0" slope="0.00"/>
        <vehicle id="2" x="191.70" y="1.60" angle="270.00" type="DEFAULT_VEHTYPE" speed="0.00" pos="5.10" lane="C0B0_0" slope="0.00"/>
    </timestep>
    <timestep time="3.00">
        <vehicle id="0" x="98.40" y="176.78" angle="180.00" type="DEFAULT_VEHTYPE" speed="5.38" pos="16.02" lane="B2B1_0" slope="0.00"/>
        <vehicle id="1" x="13.84" y="198.40" angle="90.00" type="DEFAULT_VEHTYPE" speed="3.63" pos="10.64" lane="A2B2_0" slope="0.00"/>
        <vehicle id="2" x="189.79" y="1.60" angle="270.00" type="DEFAULT_VEHTYPE" speed="1.91" pos="7.01" lane="C0B0_0" slope="0.00"/>
        <vehicle id="3" x="201.60" y="112.30" angle="0.00" type="DEFAULT_VEHTYPE" speed="0.00" pos="5.10" lane="C1C2_0" slope="0.00"/>
    </timestep>
    <timestep time="4.00">
        <vehicle id="0" x="98.40" y="169.50" angle="180.00" type="DEFAULT_VEHTYPE" speed="7.28" pos="23.30" lane="B2B1_0" slope="0.00"/>
        <vehicle id="1" x="19.22" y="198.40" angle="90.00" type="DEFAULT_VEHTYPE" speed="5.38" pos="16.02" lane="A2B2_0" slope="0.00"/>
        <vehicle id="2" x="186.16" y="1.60" angle="270.00" type="DEFAULT_VEHTYPE" speed="3.63" pos="10.64" lane="C0B0_0" slope="0.00"/>
        <vehicle id="3" x="201.60" y="114.21" angle="0.00" type="DEFAULT_VEHTYPE" speed="1.91" pos="7.01" lane="C1C2_0" slope="0.00"/>
        <vehicle id="4" x="87.70" y="101.60" angle="270.00" type="DEFAULT_VEHTYPE" speed="0.00" pos="5.10" lane="B1A1_0" slope="0.00"/>
    </timestep>
    <timestep time="5.00">
        <vehicle id="0" x="98.40" y="159.78" angle="180.00" type="DEFAULT_VEHTYPE" speed="9.73" pos="33.02" lane="B2B1_0" slope="0.00"/>
        <vehicle id="1" x="26.50" y="198.40" angle="90.00" type="DEFAULT_VEHTYPE" speed="7.28" pos="23.30" lane="A2B2_0" slope="0.00"/>
        <vehicle id="2" x="180.78" y="1.60" angle="270.00" type="DEFAULT_VEHTYPE" speed="5.38" pos="16.02" lane="C0B0_0" slope="0.00"/>
        <vehicle id="3" x="201.60" y="117.84" angle="0.00" type="DEFAULT_VEHTYPE" speed="3.63" pos="10.64" lane="C1C2_0" slope="0.00"/>
        <vehicle id="4" x="85.79" y="101.60" angle="270.00" type="DEFAULT_VEHTYPE" speed="1.91" pos="7.01" lane="B1A1_0" slope="0.00"/>
        <vehicle id="5" x="-1.60" y="191.70" angle="180.00" type="DEFAULT_VEHTYPE" speed="0.00" pos="5.10" lane="A2A1_0" slope="0.00"/>
    </timestep>
    <timestep time="6.00">
        <vehicle id="0" x="98.40" y="147.58" angle="180.00" type="DEFAULT_VEHTYPE" speed="12.20" pos="45.22" lane="B2B1_0" slope="0.00"/>
        <vehicle id="1" x="36.22" y="198.40" angle="90.00" type="DEFAULT_VEHTYPE" speed="9.73" pos="33.02" lane="A2B2_0" slope="0.00"/>
        <vehicle id="2" x="173.50" y="1.60" angle="270.00" type="DEFAULT_VEHTYPE" speed="7.28" pos="23.30" lane="C0B0_0" slope="0.00"/>
        <vehicle id="3" x="201.60" y="123.22" angle="0.00" type="DEFAULT_VEHTYPE" speed="5.38" pos="16.02" lane="C1C2_0" slope="0.00"/>
        <vehicle id="4" x="82.16" y="101.60" angle="270.00" type="DEFAULT_VEHTYPE" speed="3.63" pos="10.64" lane="B1A1_0" slope="0.00"/>
        <vehicle id="5" x="-1.60" y="189.79" angle="180.00" type="DEFAULT_VEHTYPE" speed="1.91" pos="7.01" lane="A2A1_0" slope="0.00"/>
        <vehicle id="6" x="1.60" y="8.30" angle="0.00" type="DEFAULT_VEHTYPE" speed="0.00" pos="5.10" lane="A0A1_0" slope="0.00"/>
    </timestep>
    <timestep time="7.00">
        <vehicle id="0" x="98.40" y="134.01" angle="180.00" type="DEFAULT_VEHTYPE" speed="13.57" pos="58.79" lane="B2B1_0" slope="0.00"/>
        <vehicle id="1" x="48.42" y="198.40" angle="90.00" type="DEFAULT_VEHTYPE" speed="12.20" pos="45.22" lane="A2B2_0" slope="0.00"/>
        <vehicle id="2" x="163.78" y="1.60" angle="270.00" type="DEFAULT_VEHTYPE" speed="9.73" pos="33.02" lane="C0B0_0" slope="0.00"/>
        <vehicle id="3" x="201.60" y="130.50" angle="0.00" type="DEFAULT_VEHTYPE" speed="7.28" pos="23.30" lane="C1C2_0" slope="0.00"/>
        <vehicle id="4" x="76.78" y="101.60" angle="270.00" type="DEFAULT_VEHTYPE" speed="5.38" pos="16.02" lane="B1A1_0" slope="0.00"/>
        <vehicle id="5" x="-1.60" y="186.16" angle="180.00" type="DEFAULT_VEHTYPE" speed="3.63" pos="10.64" lane="A2A1_0" slope="0.00"/>
        <vehicle id="6" x="1.60" y="10.21" angle="0.00" type="DEFAULT_VEHTYPE" speed="1.91" pos="7.01" lane="A0A1_0" slope="0.00"/>
        <vehicle id="7" x="98.40" y="187.70" angle="180.00" type="DEFAULT_VEHTYPE" speed="0.00" pos="5.10" lane="B2B1_0" slope="0.00"/>
    </timestep>
    <timestep time="8.00">
        <vehicle id="0" x="98.40" y="120.92" angle="180.00" type="DEFAULT_VEHTYPE" speed="13.10" pos="71.88" lane="B2B1_0" slope="0.00"/>
        <vehicle id="1" x="62.42" y="198.40" angle="90.00" type="DEFAULT_VEHTYPE" speed="14.01" pos="59.22" lane="A2B2_0" slope="0.00"/>
        <vehicle id="2" x="151.58" y="1.60" angle="270.00" type="DEFAULT_VEHTYPE" speed="12.20" pos="45.22" lane="C0B0_0" slope="0.00"/>
        <vehicle id="3" x="201.60" y="140.22" angle="0.00" type="DEFAULT_VEHTYPE" speed="9.73" pos="33.02" lane="C1C2_0" slope="0.00"/>
        <vehicle id="4" x="69.50" y="101.60" angle="270.00" type="DEFAULT_VEHTYPE" speed="7.28" pos="23.30" lane="B1A1_0" slope="0.00"/>
        <vehicle id="5" x="-1.60" y="180.78" angle="180.00" type="DEFAULT_VEHTYPE" speed="5.38" pos="16.02" lane="A2A1_0" slope="0.00"/>
        <vehicle id="6" x="1.60" y="13.84" angle="0.00" type="DEFAULT_VEHTYPE" speed="3.63" pos="10.64" lane="A0A1_0" slope="0.00"/>
        <vehicle id="7" x="98.40" y="185.81" angle="180.00" type="DEFAULT_VEHTYPE" speed="1.89" pos="6.99" lane="B2B1_0" slope="0.00"/>
        <vehicle id="8" x="-1.60" y="191.70" angle="180.00" type="DEFAULT_VEHTYPE" speed="0.00" pos="5.10" lane="A2A1_0" slope="0.00"/>
    </timestep>
    <timestep time="9.00">
        <vehicle id="0" x="98.40" y="107.34" angle="180.00" type="DEFAULT_VEHTYPE" speed="13.58" pos="85.46" lane="B2B1_0" slope="0.00"/>
        <vehicle id="1" x="75.79" y="198.40" angle="90.00" type="DEFAULT_VEHTYPE" speed="13.36" pos="72.59" lane="A2B2_0" slope="0.00"/>
        <vehicle id="2" x="138.37" y="1.60" angle="270.00" type="DEFAULT_VEHTYPE" speed="13.21" pos="58.43" lane="C0B0_0" slope="0.00"/>
        <vehicle id="3" x="201.60" y="152.42" angle="0.00" type="DEFAULT_VEHTYPE" speed="12.20" pos="45.22" lane="C1C2_0" slope="0.00"/>
        <vehicle id="4" x="59.78" y="101.60" angle="270.00" type="DEFAULT_VEHTYPE" speed="9.73" pos="33.02" lane="B1A1_0" slope="0.00"/>
        <vehicle id="5" x="-1.60" y="173.50" angle="180.00" type="DEFAULT_VEHTYPE" speed="7.28" pos="23.30" lane="A2A1_0" slope="0.00"/>
        <vehicle id="6" x="1.60" y="19.22" angle="0.00" type="DEFAULT_VEHTYPE" speed="5.38" pos="16.02" lane="A0A1_0" slope="0.00"/>
        <vehicle id="7" x="98.40" y="181.49" angle="180.00" type="DEFAULT_VEHTYPE" speed="4.31" pos="11.31" lane="B2B1_0" slope="0.00"/>
        <vehicle id="8" x="-1.60" y="189.25" angle="180.00" type="DEFAULT_VEHTYPE" speed="2.45" pos="7.55" lane="A2A1_0" slope="0.00"/>
        <vehicle id="9" x="187.70" y="101.60" angle="270.00" type="DEFAULT_VEHTYPE" speed="0.00" pos="5.10" lane="C1B1_0" slope="0.00"/>
    </timestep>
    <timestep time="10.00">
        <vehicle id="0" x="98.40" y="93.32" angle="180.00" type="DEFAULT_VEHTYPE" speed="14.02" pos="13.88" lane=":B1_1_0" slope="0.00"/>
        <vehicle id="1" x="85.70" y="198.40" angle="90.00" type="DEFAULT_VEHTYPE" speed="9.91" pos="82.50" lane="A2B2_0" slope="0.00"/>
        <vehicle id="2" x="125.63" y="1.60" angle="270.00" type="DEFAULT_VEHTYPE" speed="12.74" pos="71.17" lane="C0B0_0" slope="0.00"/>
        <vehicle id="3" x="201.60" y="166.42" angle="0.00" type="DEFAULT_VEHTYPE" speed="14.01" pos="59.22" lane="C1C2_0" slope="0.00"/>
        <vehicle id="4" x="47.58" y="101.60" angle="270.00" type="DEFAULT_VEHTYPE" speed="12.20" pos="45.22" lane="B1A1_0" slope="0.00"/>
        <vehicle id="5" x="-1.60" y="163.76" angle="180.00" type="DEFAULT_VEHTYPE" speed="9.75" pos="33.04" lane="A2A1_0" slope="0.00"/>
        <vehicle id="6" x="1.60" y="26.50" angle="0.00" type="DEFAULT_VEHTYPE" speed="7.28" pos="23.30" lane="A0A1_0" slope="0.00"/>
        <vehicle id="7" x="98.40" y="175.60" angle="180.00" type="DEFAULT_VEHTYPE" speed="5.90" pos="17.20" lane="B2B1_0" slope="0.00"/>
        <vehicle id="8" x="-1.60" y="184.99" angle="180.00" type="DEFAULT_VEHTYPE" speed="4.26" pos="11.81" lane="A2A1_0" slope="0.00"/>
        <vehicle id="9" x="185.79" y="101.60" angle="270.00" type="DEFAULT_VEHTYPE" speed="1.91" pos="7.01" lane="C1B1_0" slope="0.00"/>
    </timestep>
    <timestep time="11.00">
        <vehicle id="0" x="98.40" y="79.74" angle="180.00" type="DEFAULT_VEHTYPE" speed="13.58" pos="13.06" lane="B1B0_0" slope="0.00"/>
        <vehicle id="1" x="91.39" y="198.40" angle="90.00" type="DEFAULT_VEHTYPE" speed="5.69" pos="88.19" lane="A2B2_0" slope="0.00"/>
        <vehicle id="2" x="114.87" y="1.60" angle="270.00" type="DEFAULT_VEHTYPE" speed="10.76" pos="81.93" lane="C0B0_0" slope="0.00"/>
        <vehicle id="3" x="201.60" y="180.37" angle="0.00" type="DEFAULT_VEHTYPE" speed="13.95" pos="73.17" lane="C1C2_0" slope="0.00"/>
        <vehicle id="4" x="35.36" y="101.60" angle="270.00" type="DEFAULT_VEHTYPE" speed="12.23" pos="57.44" lane="B1A1_0" slope="0.00"/>
        <vehicle id="5" x="-1.60" y="152.67" angle="180.00" type="DEFAULT_VEHTYPE" speed="11.08" pos="44.13" lane="A2A1_0" slope="0.00"/>
        <vehicle id="6" x="1.60" y="36.22" angle="0.00" type="DEFAULT_VEHTYPE" speed="9.73" pos="33.02" lane="A0A1_0" slope="0.00"/>
        <vehicle id="7" x="98.40" y="167.41" angle="180.00" type="DEFAULT_VEHTYPE" speed="8.18" pos="25.39" lane="B2B1_0" slope="0.00"/>
        <vehicle id="8" x="-1.60" y="178.84" angle="180.00" type="DEFAULT_VEHTYPE" speed="6.15" pos="17.96" lane="A2A1_0" slope="0.00"/>
        <vehicle id="9" x="182.16" y="101.60" angle="270.00" type="DEFAULT_VEHTYPE" speed="3.63" pos="10.64" lane="C1B1_0" slope="0.00"/>
    </timestep>
    <timestep time="12.00">
        <vehicle id="0" x="98.40" y="66.07" angle="180.00" type="DEFAULT_VEHTYPE" speed="13.67" pos="26.73" lane="B1B0_0" slope="0.00"/>
        <vehicle id="1" x="94.19" y="200.42" angle="60.55" type="DEFAULT_VEHTYPE" speed="4.22" pos="1.37" lane=":B2_11_0" slope="0.00"/>
        <vehicle id="10" x="187.70" y="101.60" angle="270.00" type="DEFAULT_VEHTYPE" speed="0.00" pos="5.10" lane="C1B1_0" slope="0.00"/>
        <vehicle id="2" x="107.38" y="1.60" angle="270.00" type="DEFAULT_VEHTYPE" speed="7.49" pos="89.42" lane="C0B0_0" slope="0.00"/>
        <vehicle id="3" x="201.60" y="190.82" angle="0.00" type="DEFAULT_VEHTYPE" speed="10.45" pos="83.62" lane="C1C2_0" slope="0.00"/>
        <vehicle id="4" x="23.60" y="101.60" angle="270.00" type="DEFAULT_VEHTYPE" speed="11.75" pos="69.20" lane="B1A1_0" slope="0.00"/>
        <vehicle id="5" x="-1.60" y="139.77" angle="180.00" type="DEFAULT_VEHTYPE" speed="12.90" pos="57.03" lane="A2A1_0" slope="0.00"/>
        <vehicle id="6" x="1.60" y="48.42" angle="0.00" type="DEFAULT_VEHTYPE" speed="12.20" pos="45.22" lane="A0A1_0" slope="0.00"/>
        <vehicle id="7" x="98.40" y="156.78" angle="180.00" type="DEFAULT_VEHTYPE" speed="10.63" pos="36.02" lane="B2B1_0" slope="0.00"/>
        <vehicle id="8" x="-1.60" y="170.27" angle="180.00" type="DEFAULT_VEHTYPE" speed="8.57" pos="26.53" lane="A2A1_0" slope="0.00"/>
        <vehicle id="9" x="176.78" y="101.60" angle="270.00" type="DEFAULT_VEHTYPE" speed="5.38" pos="16.02" lane="C1B1_0" slope="0.00"/>
    </timestep>
    <timestep time="13.00">
        <vehicle id="0" x="98.40" y="52.59" angle="180.00" type="DEFAULT_VEHTYPE" speed="13.48" pos="40.21" lane="B1B0_0" slope="0.00"/>
        <vehicle id="1" x="90.95" y="201.60" angle="307.06" type="DEFAULT_VEHTYPE" speed="3.71" pos="1.85" lane="B2A2_0" slope="0.00"/>
        <vehicle id="10" x="185.25" y="101.60" angle="270.00" type="DEFAULT_VEHTYPE" speed="2.45" pos="7.55" lane="C1B1_0" slope="0.00"/>
        <vehicle id="2" x="102.21" y="4.31" angle="302.96" type="DEFAULT_VEHTYPE" speed="6.23" pos="6.04" lane=":B0_3_0" slope="0.00"/>
        <vehicle id="3" x="201.60" y="196.78" angle="0.00" type="DEFAULT_VEHTYPE" speed="5.95" pos="89.58" lane="C1C2_0" slope="0.00"/>
        <vehicle id="4" x="14.37" y="101.60" angle="270.00" type="DEFAULT_VEHTYPE" speed="9.23" pos="78.43" lane="B1A1_0" slope="0.00"/>
        <vehicle id="5" x="-1.60" y="125.16" angle="180.00" type="DEFAULT_VEHTYPE" speed="14.61" pos="71.64" lane="A2A1_0" slope="0.00"/>
        <vehicle id="6" x="1.60" y="60.07" angle="0.00" type="DEFAULT_VEHTYPE" speed="11.65" pos="56.87" lane="A0A1_0" slope="0.00"/>
        <vehicle id="7" x="98.40" y="145.40" angle="180.00" type="DEFAULT_VEHTYPE" speed="11.39" pos="47.40" lane="B2B1_0" slope="0.00"/>
        <vehicle id="8" x="-1.60" y="160.11" angle="180.00" type="DEFAULT_VEHTYPE" speed="10.16" pos="36.69" lane="A2A1_0" slope="0.00"/>
        <vehicle id="9" x="169.50" y="101.60" angle="270.00" type="DEFAULT_VEHTYPE" speed="7.28" pos="23.30" lane="C1B1_0" slope="0.00"/>
    </timestep>
    <timestep time="14.00">
        <vehicle id="0" x="98.40" y="39.08" angle="180.00" type="DEFAULT_VEHTYPE" speed="13.51" pos="53.72" lane="B1B0_0" slope="0.00"/>
        <vehicle id="1" x="85.33" y="201.60" angle="270.00" type="DEFAULT_VEHTYPE" speed="5.62" pos="7.47" lane="B2A2_0" slope="0.00"/>
        <vehicle id="10" x="180.99" y="101.60" angle="270.00" type="DEFAULT_VEHTYPE" speed="4.26" pos="11.81" lane="C1B1_0" slope="0.00"/>
        <vehicle id="14" x="198.40" y="87.70" angle="180.00" type="DEFAULT_VEHTYPE" speed="0.00" pos="5.10" lane="C1C0_0" slope="0.00"/>
        <vehicle id="2" x="101.60" y="10.09" angle="356.57" type="DEFAULT_VEHTYPE" speed="5.87" pos="2.89" lane="B0B1_0" slope="0.00"/>
        <vehicle id="3" x="198.07" y="201.42" angle="313.75" type="DEFAULT_VEHTYPE" speed="6.48" pos="6.45" lane=":C2_0_0" slope="0.00"/>
        <vehicle id="4" x="9.37" y="101.60" angle="270.00" type="DEFAULT_VEHTYPE" speed="5.00" pos="83.43" lane="B1A1_0" slope="0.00"/>
        <vehicle id="5" x="-1.60" y="113.66" angle="180.00" type="DEFAULT_VEHTYPE" speed="11.50" pos="83.14" lane="A2A1_0" slope="0.00"/>
        <vehicle id="6" x="1.60" y="71.24" angle="0.00" type="DEFAULT_VEHTYPE" speed="11.18" pos="68.04" lane="A0A1_0" slope="0.00"/>
        <vehicle id="7" x="98.40" y="133.77" angle="180.00" type="DEFAULT_VEHTYPE" speed="11.63" pos="59.03" lane="B2B1_0" slope="0.00"/>
        <vehicle id="8" x="-1.60" y="147.51" angle="180.00" type="DEFAULT_VEHTYPE" speed="12.60" pos="49.29" lane="A2A1_0" slope="0.00"/>
        <vehicle id="9" x="159.76" y="101.60" angle="270.00" type="DEFAULT_VEHTYPE" speed="9.75" pos="33.04" lane="C1B1_0" slope="0.00"/>
    </timestep>
    <timestep time="15.00">
        <vehicle id="0" x="98.40" y="25.43" angle="180.00" type="DEFAULT_VEHTYPE" speed="13.66" pos="67.37" lane="B1B0_0" slope="0.00"/>
        <vehicle id="1" x="77.98" y="201.60" angle="270.00" type="DEFAULT_VEHTYPE" speed="7.34" pos="14.82" lane="B2A2_0" slope="0.00"/>
        <vehicle id="10" x="174.84" y="101.60" angle="270.00" type="DEFAULT_VEHTYPE" speed="6.15" pos="17.96" lane="C1B1_0" slope="0.00"/>
        <vehicle id="14" x="198.40" y="85.79" angle="180.00" type="DEFAULT_VEHTYPE" speed="1.91" pos="7.01" lane="C1C0_0" slope="0.00"/>
        <vehicle id="15" x="187.70" y="101.60" angle="270.00" type="DEFAULT_VEHTYPE" speed="0.00" pos="5.10" lane="C1B1_0" slope="0.00"/>
        <vehicle id="2" x="101.60" y="17.87" angle="0.00" type="DEFAULT_VEHTYPE" speed="7.78" pos="10.67" lane="B0B1_0" slope="0.00"/>
        <vehicle id="3" x="192.12" y="201.60" angle="270.51" type="DEFAULT_VEHTYPE" speed="5.97" pos="4.68" lane="C2B2_0" slope="0.00"/>
        <vehicle id="4" x="7.45" y="101.60" angle="270.00" type="DEFAULT_VEHTYPE" speed="1.92" pos="85.35" lane="B1A1_0" slope="0.00"/>
        <vehicle id="5" x="-1.52" y="106.67" angle="179.14" type="DEFAULT_VEHTYPE" speed="7.00" pos="0.53" lane=":A1_1_0" slope="0.00"/>
        <vehicle id="6" x="1.60" y="82.98" angle="0.00" type="DEFAULT_VEHTYPE" speed="11.73" pos="79.78" lane="A0A1_0" slope="0.00"/>
        <vehicle id="7" x="98.40" y="122.25" angle="180.00" type="DEFAULT_VEHTYPE" speed="11.51" pos="70.55" lane="B2B1_0" slope="0.00"/>
        <vehicle id="8" x="-1.60" y="132.67" angle="180.00" type="DEFAULT_VEHTYPE" speed="14.84" pos="64.13" lane="A2A1_0" slope="0.00"/>
        <vehicle id="9" x="148.67" y="101.60" angle="270.00" type="DEFAULT_VEHTYPE" speed="11.08" pos="44.13" lane="C1B1_0" slope="0.00"/>
    </timestep>
    <timestep time="16.00">
        <vehicle id="0" x="98.40" y="15.04" angle="180.00" type="DEFAULT_VEHTYPE" speed="10.39" pos="77.76" lane="B1B0_0" slope="0.00"/>
        <vehicle id="1" x="68.89" y="201.60" angle="270.00" type="DEFAULT_VEHTYPE" speed="9.09" pos="23.91" lane="B2A2_0" slope="0.00"/>
        <vehicle id="10" x="166.27" y="101.60" angle="270.00" type="DEFAULT_VEHTYPE" speed="8.57" pos="26.53" lane="C1B1_0" slope="0.00"/>
        <vehicle id="14" x="198.40" y="82.16" angle="180.00" type="DEFAULT_VEHTYPE" speed="3.63" pos="10.64" lane="C1C0_0" slope="0.00"/>
        <vehicle id="15" x="185.44" y="101.60" angle="270.00" type="DEFAULT_VEHTYPE" speed="2.26" pos="7.36" lane="C1B1_0" slope="0.00"/>
        <vehicle id="2" x="101.60" y="27.38" angle="0.00" type="DEFAULT_VEHTYPE" speed="9.50" pos="20.18" lane="B0B1_0" slope="0.00"/>
        <vehicle id="3" x="184.24" y="201.60" angle="270.00" type="DEFAULT_VEHTYPE" speed="7.88" pos="12.56" lane="C2B2_0" slope="0.00"/>
        <vehicle id="4" x="7.32" y="101.60" angle="270.00" type="DEFAULT_VEHTYPE" speed="0.13" pos="85.48" lane="B1A1_0" slope="0.00"/>
        <vehicle id="5" x="-1.14" y="103.96" angle="174.67" type="DEFAULT_VEHTYPE" speed="2.75" pos="3.28" lane=":A1_1_0" slope="0.00"/>
        <vehicle id="6" x="1.60" y="92.02" angle="0.00" type="DEFAULT_VEHTYPE" speed="9.04" pos="88.82" lane="A0A1_0" slope="0.00"/>
        <vehicle id="7" x="98.40" y="112.18" angle="180.00" type="DEFAULT_VEHTYPE" speed="10.08" pos="80.62" lane="B2B1_0" slope="0.00"/>
        <vehicle id="8" x="-1.60" y="121.64" angle="180.00" type="DEFAULT_VEHTYPE" speed="11.03" pos="75.16" lane="A2A1_0" slope="0.00"/>
        <vehicle id="9" x="135.77" y="101.60" angle="270.00" type="DEFAULT_VEHTYPE" speed="12.90" pos="57.03" lane="C1B1_0" slope="0.00"/>
    </timestep>
    <timestep time="17.00">
        <vehicle id="0" x="98.40" y="9.05" angle="180.00" type="DEFAULT_VEHTYPE" speed="5.99" pos="83.75" lane="B1B0_0" slope="0.00"/>
        <vehicle id="1" x="57.90" y="201.60" angle="270.00" type="DEFAULT_VEHTYPE" speed="10.99" pos="34.90" lane="B2A2_0" slope="0.00"/>
        <vehicle id="10" x="155.41" y="101.60" angle="270.00" type="DEFAULT_VEHTYPE" speed="10.86" pos="37.39" lane="C1B1_0" slope="0.00"/>
        <vehicle id="12" x="191.70" y="201.60" angle="270.00" type="DEFAULT_VEHTYPE" speed="0.00" pos="5.10" lane="C2B2_0" slope="0.00"/>
        <vehicle id="13" x="-1.60" y="87.70" angle="180.00" type="DEFAULT_VEHTYPE" speed="0.00" pos="5.10" lane="A1A0_0" slope="0.00"/>
        <vehicle id="14" x="198.40" y="76.78" angle="180.00" type="DEFAULT_VEHTYPE" speed="5.38" pos="16.02" lane="C1C0_0" slope="0.00"/>
        <vehicle id="15" x="180.73" y="101.60" angle="270.00" type="DEFAULT_VEHTYPE" speed="4.70" pos="12.07" lane="C1B1_0" slope="0.00"/>
        <vehicle id="17" x="112.30" y="-1.60" angle="90.00" type="DEFAULT_VEHTYPE" speed="0.00" pos="5.10" lane="B0C0_0" slope="0.00"/>
        <vehicle id="2" x="101.60" y="38.63" angle="0.00" type="DEFAULT_VEHTYPE" speed="11.25" pos="31.43" lane="B0B1_0" slope="0.00"/>
        <vehicle id="3" x="174.64" y="201.60" angle="270.00" type="DEFAULT_VEHTYPE" speed="9.60" pos="22.16" lane="C2B2_0" slope="0.00"/>
        <vehicle id="4" x="7.31" y="101.60" angle="270.00" type="DEFAULT_VEHTYPE" speed="0.01" pos="85.49" lane="B1A1_0" slope="0.00"/>
        <vehicle id="5" x="-1.07" y="103.51" angle="173.93" type="DEFAULT_VEHTYPE" speed="0.46" pos="3.74" lane=":A1_1_0" slope="0.00"/>
        <vehicle id="6" x="3.30" y="97.18" angle="20.65" type="DEFAULT_VEHTYPE" speed="5.65" pos="4.87" lane=":A1_6_0" slope="0.00"/>
        <vehicle id="7" x="98.57" y="105.98" angle="178.00" type="DEFAULT_VEHTYPE" speed="6.21" pos="1.23" lane=":B1_2_0" slope="0.00"/>
        <vehicle id="8" x="-1.60" y="115.04" angle="180.00" type="DEFAULT_VEHTYPE" speed="6.60" pos="81.76" lane="A2A1_0" slope="0.00"/>
        <vehicle id="9" x="122.92" y="101.60" angle="270.00" type="DEFAULT_VEHTYPE" speed="12.85" pos="69.88" lane="C1B1_0" slope="0.00"/>
    </timestep>
    <timestep time="18.00">
        <vehicle id="0" x="97.22" y="3.36" angle="193.99" type="DEFAULT_VEHTYPE" speed="5.94" pos="4.09" lane=":B0_0_0" slope="0.00"/>
        <vehicle id="1" x="44.46" y="201.60" angle="270.00" type="DEFAULT_VEHTYPE" speed="13.44" pos="48.34" lane="B2A2_0" slope="0.00"/>
        <vehicle id="10" x="142.31" y="101.60" angle="270.00" type="DEFAULT_VEHTYPE" speed="13.10" pos="50.49" lane="C1B1_0" slope="0.00"/>
        <vehicle id="11" x="101.60" y="12.30" angle="0.00" type="DEFAULT_VEHTYPE" speed="0.00" pos="5.10" lane="B0B1_0" slope="0.00"/>
        <vehicle id="12" x="189.80" y="201.60" angle="270.00" type="DEFAULT_VEHTYPE" speed="1.90" pos="7.00" lane="C2B2_0" slope="0.00"/>
        <vehicle id="13" x="-1.60" y="85.79" angle="180.00" type="DEFAULT_VEHTYPE" speed="1.91" pos="7.01" lane="A1A0_0" slope="0.00"/>
        <vehicle id="14" x="198.40" y="69.50" angle="180.00" type="DEFAULT_VEHTYPE" speed="7.28" pos="23.30" lane="C1C0_0" slope="0.00"/>
        <vehicle id="15" x="173.90" y="101.60" angle="270.00" type="DEFAULT_VEHTYPE" speed="6.83" pos="18.90" lane="C1B1_0" slope="0.00"/>
        <vehicle id="17" x="114.21" y="-1.60" angle="90.00" type="DEFAULT_VEHTYPE" speed="1.91" pos="7.01" lane="B0C0_0" slope="0.00"/>
        <vehicle id="18" x="187.70" y="101.60" angle="270.00" type="DEFAULT_VEHTYPE" speed="0.00" pos="5.10" lane="C1B1_0" slope="0.00"/>
        <vehicle id="2" x="101.60" y="51.78" angle="0.00" type="DEFAULT_VEHTYPE" speed="13.15" pos="44.58" lane="B0B1_0" slope="0.00"/>
        <vehicle id="3" x="163.29" y="201.60" angle="270.00" type="DEFAULT_VEHTYPE" speed="11.35" pos="33.51" lane="C2B2_0" slope="0.00"/>
        <vehicle id="4" x="7.30" y="101.60" angle="270.00" type="DEFAULT_VEHTYPE" speed="0.01" pos="85.50" lane="B1A1_0" slope="0.00"/>
        <vehicle id="5" x="-1.05" y="103.35" angle="173.67" type="DEFAULT_VEHTYPE" speed="0.16" pos="3.89" lane=":A1_1_0" slope="0.00"/>
        <vehicle id="6" x="7.99" y="98.40" angle="75.25" type="DEFAULT_VEHTYPE" speed="4.95" pos="0.79" lane="A1B1_0" slope="0.00"/>
        <vehicle id="7" x="100.89" y="100.42" angle="153.76" type="DEFAULT_VEHTYPE" speed="6.22" pos="3.38" lane=":B1_16_0" slope="0.00"/>
        <vehicle id="8" x="-1.60" y="111.48" angle="180.00" type="DEFAULT_VEHTYPE" speed="3.56" pos="85.32" lane="A2A1_0" slope="0.00"/>
        <vehicle id="9" x="113.81" y="101.60" angle="270.00" type="DEFAULT_VEHTYPE" speed="9.10" pos="78.99" lane="C1B1_0" slope="0.00"/>
    </timestep>
    <timestep time="19.00">
        <vehicle id="0" x="91.70" y="1.60" angle="257.23" type="DEFAULT_VEHTYPE" speed="6.04" pos="1.10" lane="B0A0_0" slope="0.00"/>
        <vehicle id="1" x="28.56" y="201.60" angle="270.00" type="DEFAULT_VEHTYPE" speed="15.91" pos="64.24" lane="B2A2_0" slope="0.00"/>
        <vehicle id="10" x="129.76" y="101.60" angle="270.00" type="DEFAULT_VEHTYPE" speed="12.55" pos="63.04" lane="C1B1_0" slope="0.00"/>
        <vehicle id="11" x="101.60" y="14.77" angle="0.00" type="DEFAULT_VEHTYPE" speed="2.47" pos="7.57" lane="B0B1_0" slope="0.00"/>
        <vehicle id="12" x="185.43" y="201.60" angle="270.00" type="DEFAULT_VEHTYPE" speed="4.37" pos="11.37" lane="C2B2_0" slope="0.00"/>
        <vehicle id="13" x="-1.60" y="82.16" angle="180.00" type="DEFAULT_VEHTYPE" speed="3.63" pos="10.64" lane="A1A0_0" slope="0.00"/>
        <vehicle id="14" x="198.40" y="59.78" angle="180.00" type="DEFAULT_VEHTYPE" speed="9.73" pos="33.02" lane="C1C0_0" slope="0.00"/>
        <vehicle id="15" x="165.67" y="101.60" angle="270.00" type="DEFAULT_VEHTYPE" speed="8.24" pos="27.13" lane="C1B1_0" slope="0.00"/>
        <vehicle id="16" x="101.60" y="112.30" angle="0.00" type="DEFAULT_VEHTYPE" speed="0.00" pos="5.10" lane="B1B2_0" slope="0.00"/>
        <vehicle id="17" x="117.84" y="-1.60" angle="90.00" type="DEFAULT_VEHTYPE" speed="3.63" pos="10.64" lane="B0C0_0" slope="0.00"/>
        <vehicle id="18" x="185.28" y="101.60" angle="270.00" type="DEFAULT_VEHTYPE" speed="2.42" pos="7.52" lane="C1B1_0" slope="0.00"/>
        <vehicle id="19" x="198.40" y="87.70" angle="180.00" type="DEFAULT_VEHTYPE" speed="0.00" pos="5.10" lane="C1C0_0" slope="0.00"/>
        <vehicle id="2" x="101.60" y="65.63" angle="0.00" type="DEFAULT_VEHTYPE" speed="13.85" pos="58.43" lane="B0B1_0" slope="0.00"/>
        <vehicle id="3" x="149.49" y="201.60" angle="270.00" type="DEFAULT_VEHTYPE" speed="13.80" pos="47.31" lane="C2B2_0" slope="0.00"/>
        <vehicle id="4" x="7.30" y="101.60" angle="270.00" type="DEFAULT_VEHTYPE" speed="0.00" pos="85.50" lane="B1A1_0" slope="0.00"/>
        <vehicle id="5" x="0.01" y="101.59" angle="162.52" type="DEFAULT_VEHTYPE" speed="2.05" pos="1.88" lane=":A1_9_0" slope="0.00"/>
        <vehicle id="6" x="14.66" y="98.40" angle="90.00" type="DEFAULT_VEHTYPE" speed="6.67" pos="7.46" lane="A1B1_0" slope="0.00"/>
        <vehicle id="7" x="107.22" y="98.40" angle="103.01" type="DEFAULT_VEHTYPE" speed="6.78" pos="0.02" lane="B1C1_0" slope="0.00"/>
        <vehicle id="8" x="-1.60" y="111.12" angle="180.00" type="DEFAULT_VEHTYPE" speed="0.36" pos="85.68" lane="A2A1_0" slope="0.00"/>
        <vehicle id="9" x="109.07" y="101.60" angle="270.00" type="DEFAULT_VEHTYPE" speed="4.75" pos="83.73" lane="C1B1_0" slope="0.00"/>
    </timestep>
    <timestep time="20.00">
        <vehicle id="0" x="83.94" y="1.60" angle="270.00" type="DEFAULT_VEHTYPE" speed="7.76" pos="8.86" lane="B0A0_0" slope="0.00"/>
        <vehicle id="1" x="14.42" y="201.60" angle="270.00" type="DEFAULT_VEHTYPE" speed="14.14" pos="78.38" lane="B2A2_0" slope="0.00"/>
        <vehicle id="10" x="121.71" y="101.60" angle="270.00" type="DEFAULT_VEHTYPE" speed="8.05" pos="71.09" lane="C1B1_0" slope="0.00"/>
        <vehicle id="11" x="101.60" y="18.58" angle="0.00" type="DEFAULT_VEHTYPE" speed="3.81" pos="11.38" lane="B0B1_0" slope="0.00"/>
        <vehicle id="12" x="179.73" y="201.60" angle="270.00" type="DEFAULT_VEHTYPE" speed="5.71" pos="17.07" lane="C2B2_0" slope="0.00"/>
        <vehicle id="13" x="-1.60" y="76.78" angle="180.00" type="DEFAULT_VEHTYPE" speed="5.38" pos="16.02" lane="A1A0_0" slope="0.00"/>
        <vehicle id="14" x="198.40" y="48.24" angle="180.00" type="DEFAULT_VEHTYPE" speed="11.53" pos="44.56" lane="C1C0_0" slope="0.00"/>
        <vehicle id="15" x="154.97" y="101.60" angle="270.00" type="DEFAULT_VEHTYPE" speed="10.70" pos="37.83" lane="C1B1_0" slope="0.00"/>
        <vehicle id="16" x="101.60" y="114.21" angle="0.00" type="DEFAULT_VEHTYPE" speed="1.91" pos="7.01" lane="B1B2_0" slope="0.00"/>
        <vehicle id="17" x="123.22" y="-1.60" angle="90.00" type="DEFAULT_VEHTYPE" speed="5.38" pos="16.02" lane="B0C0_0" slope="0.00"/>
        <vehicle id="18" x="181.45" y="101.60" angle="270.00" type="DEFAULT_VEHTYPE" speed="3.84" pos="11.35" lane="C1B1_0" slope="0.00"/>
        <vehicle id="19" x="198.40" y="86.36" angle="180.00" type="DEFAULT_VEHTYPE" speed="1.34" pos="6.44" lane="C1C0_0" slope="0.00"/>
        <vehicle id="2" x="101.60" y="78.06" angle="0.00" type="DEFAULT_VEHTYPE" speed="12.43" pos="70.86" lane="B0B1_0" slope="0.00"/>
        <vehicle id="3" x="135.07" y="201.60" angle="270.00" type="DEFAULT_VEHTYPE" speed="14.42" pos="61.73" lane="C2B2_0" slope="0.00"/>
        <vehicle id="4" x="7.30" y="101.60" angle="270.00" type="DEFAULT_VEHTYPE" speed="0.00" pos="85.50" lane="B1A1_0" slope="0.00"/>
        <vehicle id="5" x="3.01" y="99.16" angle="133.23" type="DEFAULT_VEHTYPE" speed="3.96" pos="5.84" lane=":A1_9_0" slope="0.00"/>