<?xml version="1.0" encoding="UTF-8"?>

<!-- generated on 2025-12-20 15:44:22 by Eclipse SUMO sumo Version 1.23.1
<sumoConfiguration xmlns:xsi="http://www.w3.org/2001/XMLSchema-instance" xsi:noNamespaceSchemaLocation="http://sumo.dlr.de/xsd/sumoConfiguration.xsd">

    <input>
        <net-file value="F:\sumo-mcp\tests\test_outputs\manual_check\grid.net.xml"/>
        <route-files value="F:\sumo-mcp\tests\test_outputs\manual_check\routes.xml"/>
        <additional-files value="F:\sumo-mcp\tests\test_outputs\manual_check\signal_opt\optimized.net.xml"/>
    </input>

    <output>
        <fcd-output value="F:\sumo-mcp\tests\test_outputs\manual_check\signal_opt\optimized_fcd.xml"/>
    </output>

    <time>
        <begin value="0"/>
        <end value="100"/>
    </time>

    <report>
        <no-step-log value="true"/>
    </report>

    <traci_server>
        <remote-port value="53462"/>
    </traci_server>

    <random_number>
        <random value="true"/>
    </random_number>

</sumoConfiguration>
-->

<fcd-export xmlns:xsi="http://www.w3.org/2001/XMLSchema-instance" xsi:noNamespaceSchemaLocation="http://sumo.dlr.de/xsd/fcd_file.xsd">
    <timestep time="0.00">
        <vehicle id="0" x="98.40" y="187.70" angle="180.00" type="DEFAULT_VEHTYPE" speed="0.00" pos="5.10" lane="B2B1_0" slope="0.00"/>
    </timestep>
    <timestep time="1.00">
        <vehicle id="0" x="98.40" y="185.19" angle="180.00" type="DEFAULT_VEHTYPE" speed="2.51" pos="7.61" lane="B2B1_0" slope="0.00"/>
        <vehicle id="1" x="8.30" y="198.40" angle="90.00" type="DEFAULT_VEHTYPE" speed="0.00" pos="5.10" lane="A2B2_0" slope="0.00"/>
    </timestep>
    <timestep time="2.00">
        <vehicle id="0" x="98.40" y="181.24" angle="180.00" type="DEFAULT_VEHTYPE" speed="3.95" pos="11.56" lane="B2B1_0" slope="0.00"/>
        <vehicle id="1" x="10.81" y="198.40" angle="90.00" type="DEFAULT_VEHTYPE" speed="2.51" pos="7.61" lane="A2B2_0" slope="0.00"/>
        <vehicle id="2" x="191.70" y="1.60" angle="270.00" type="DEFAULT_VEHTYPE" speed="0.00" pos="5.10" lane="C0B0_0" slope="0.00"/>
    </timestep>
    <timestep time="3.00">
        <vehicle id="0" x="98.40" y="175.40" angle="180.00" type="DEFAULT_VEHTYPE" speed="5.84" pos="17.40" lane="B2B1_0" slope="0.00"/>
        <vehicle id="1" x="14.76" y="198.40" angle="90.00" type="DEFAULT_VEHTYPE" speed="3.95" pos="11.56" lane="A2B2_0" slope="0.00"/>
        <vehicle id="2" x="189.19" y="1.60" angle="270.00" type="DEFAULT_VEHTYPE" speed="2.51" pos="7.61" lane="C0B0_0" slope="0.00"/>
        <vehicle id="3" x="201.60" y="112.30" angle="0.00" type="DEFAULT_VEHTYPE" speed="0.00" pos="5.10" lane="C1C2_0" slope="0.00"/>
    </timestep>
    <timestep time="4.00">
        <vehicle id="0" x="98.40" y="168.23" angle="180.00" type="DEFAULT_VEHTYPE" speed="7.17" pos="24.57" lane="B2B1_0" slope="0.00"/>
        <vehicle id="1" x="20.60" y="198.40" angle="90.00" type="DEFAULT_VEHTYPE" speed="5.84" pos="17.40" lane="A2B2_0" slope="0.00"/>
        <vehicle id="2" x="185.24" y="1.60" angle="270.00" type="DEFAULT_VEHTYPE" speed="3.95" pos="11.56" lane="C0B0_0" slope="0.00"/>
        <vehicle id="3" x="201.60" y="114.81" angle="0.00" type="DEFAULT_VEHTYPE" speed="2.51" pos="7.61" lane="C1C2_0" slope="0.00"/>
        <vehicle id="4" x="87.70" y="101.60" angle="270.00" type="DEFAULT_VEHTYPE" speed="0.00" pos="5.10" lane="B1A1_0" slope="0.00"/>
    </timestep>
    <timestep time="5.00">
        <vehicle id="0" x="98.40" y="158.79" angle="180.00" type="DEFAULT_VEHTYPE" speed="9.44" pos="34.01" lane="B2B1_0" slope="0.00"/>
        <vehicle id="1" x="27.77" y="198.40" angle="90.00" type="DEFAULT_VEHTYPE" speed="7.17" pos="24.57" lane="A2B2_0" slope="0.00"/>
        <vehicle id="2" x="179.40" y="1.60" angle="270.00" type="DEFAULT_VEHTYPE" speed="5.84" pos="17.40" lane="C0B0_0" slope="0.00"/>
        <vehicle id="3" x="201.60" y="118.76" angle="0.00" type="DEFAULT_VEHTYPE" speed="3.95" pos="11.56" lane="C1C2_0" slope="0.00"/>
        <vehicle id="4" x="85.19" y="101.60" angle="270.00" type="DEFAULT_VEHTYPE" speed="2.51" pos="7.61" lane="B1A1_0" slope="0.00"/>
        <vehicle id="5" x="-1.60" y="191.70" angle="180.00" type="DEFAULT_VEHTYPE" speed="0.00" pos="5.10" lane="A2A1_0" slope="0.00"/>
    </timestep>
    <timestep time="6.00">
        <vehicle id="0" x="98.40" y="146.76" angle="180.00" type="DEFAULT_VEHTYPE" speed="12.03" pos="46.04" lane="B2B1_0" slope="0.00"/>
        <vehicle id="1" x="37.21" y="198.40" angle="90.00" type="DEFAULT_VEHTYPE" speed="9.44" pos="34.01" lane="A2B2_0" slope="0.00"/>
        <vehicle id="2" x="172.23" y="1.60" angle="270.00" type="DEFAULT_VEHTYPE" speed="7.17" pos="24.57" lane="C0B0_0" slope="0.00"/>
        <vehicle id="3" x="201.60" y="124.60" angle="0.00" type="DEFAULT_VEHTYPE" speed="5.84" pos="17.40" lane="C1C2_0" slope="0.00"/>
        <vehicle id="4" x="81.24" y="101.60" angle="270.00" type="DEFAULT_VEHTYPE" speed="3.95" pos="11.56" lane="B1A1_0" slope="0.00"/>
        <vehicle id="5" x="-1.60" y="189.19" angle="180.00" type="DEFAULT_VEHTYPE" speed="2.51" pos="7.61" lane="A2A1_0" slope="0.00"/>
        <vehicle id="6" x="1.60" y="8.30" angle="0.00" type="DEFAULT_VEHTYPE" speed="0.00" pos="5.10" lane="A0A1_0" slope="0.00"/>
    </timestep>
    <timestep time="7.00">
        <vehicle id="0" x="98.40" y="133.48" angle="180.00" type="DEFAULT_VEHTYPE" speed="13.28" pos="59.32" lane="B2B1_0" slope="0.00"/>
        <vehicle id="1" x="49.24" y="198.40" angle="90.00" type="DEFAULT_VEHTYPE" speed="12.03" pos="46.04" lane="A2B2_0" slope="0.00"/>
        <vehicle id="2" x="162.79" y="1.60" angle="270.00" type="DEFAULT_VEHTYPE" speed="9.44" pos="34.01" lane="C0B0_0" slope="0.00"/>
        <vehicle id="3" x="201.60" y="131.77" angle="0.00" type="DEFAULT_VEHTYPE" speed="7.17" pos="24.57" lane="C1C2_0" slope="0.00"/>
        <vehicle id="4" x="75.40" y="101.60" angle="270.00" type="DEFAULT_VEHTYPE" speed="5.84" pos="17.40" lane="B1A1_0" slope="0.00"/>
        <vehicle id="5" x="-1.60" y="185.24" angle="180.00" type="DEFAULT_VEHTYPE" speed="3.95" pos="11.56" lane="A2A1_0" slope="0.00"/>
        <vehicle id="6" x="1.60" y="10.81" angle="0.00" type="DEFAULT_VEHTYPE" speed="2.51" pos="7.61" lane="A0A1_0" slope="0.00"/>
        <vehicle id="7" x="98.40" y="187.70" angle="180.00" type="DEFAULT_VEHTYPE" speed="0.00" pos="5.10" lane="B2B1_0" slope="0.00"/>
    </timestep>
    <timestep time="8.00">
        <vehicle id="0" x="98.40" y="120.01" angle="180.00" type="DEFAULT_VEHTYPE" speed="13.47" pos="72.79" lane="B2B1_0" slope="0.00"/>
        <vehicle id="1" x="63.03" y="198.40" angle="90.00" type="DEFAULT_VEHTYPE" speed="13.80" pos="59.83" lane="A2B2_0" slope="0.00"/>
        <vehicle id="2" x="150.76" y="1.60" angle="270.00" type="DEFAULT_VEHTYPE" speed="12.03" pos="46.04" lane="C0B0_0" slope="0.00"/>
        <vehicle id="3" x="201.60" y="141.21" angle="0.00" type="DEFAULT_VEHTYPE" speed="9.44" pos="34.01" lane="C1C2_0" slope="0.00"/>
        <vehicle id="4" x="68.23" y="101.60" angle="270.00" type="DEFAULT_VEHTYPE" speed="7.17" pos="24.57" lane="B1A1_0" slope="0.00"/>
        <vehicle id="5" x="-1.60" y="179.40" angle="180.00" type="DEFAULT_VEHTYPE" speed="5.84" pos="17.40" lane="A2A1_0" slope="0.00"/>
        <vehicle id="6" x="1.60" y="14.76" angle="0.00" type="DEFAULT_VEHTYPE" speed="3.95" pos="11.56" lane="A0A1_0" slope="0.00"/>
        <vehicle id="7" x="98.40" y="186.28" angle="180.00" type="DEFAULT_VEHTYPE" speed="1.42" pos="6.52" lane="B2B1_0" slope="0.00"/>
        <vehicle id="8" x="-1.60" y="191.70" angle="180.00" type="DEFAULT_VEHTYPE" speed="0.00" pos="5.10" lane="A2A1_0" slope="0.00"/>
    </timestep>
    <timestep time="9.00">
        <vehicle id="0" x="98.40" y="106.86" angle="180.00" type="DEFAULT_VEHTYPE" speed="13.15" pos="0.34" lane=":B1_1_0" slope="0.00"/>
        <vehicle id="1" x="76.97" y="198.40" angle="90.00" type="DEFAULT_VEHTYPE" speed="13.93" pos="73.77" lane="A2B2_0" slope="0.00"/>
        <vehicle id="2" x="136.81" y="1.60" angle="270.00" type="DEFAULT_VEHTYPE" speed="13.95" pos="59.99" lane="C0B0_0" slope="0.00"/>
        <vehicle id="3" x="201.60" y="153.24" angle="0.00" type="DEFAULT_VEHTYPE" speed="12.03" pos="46.04" lane="C1C2_0" slope="0.00"/>
        <vehicle id="4" x="58.79" y="101.60" angle="270.00" type="DEFAULT_VEHTYPE" speed="9.44" pos="34.01" lane="B1A1_0" slope="0.00"/>
        <vehicle id="5" x="-1.60" y="172.23" angle="180.00" type="DEFAULT_VEHTYPE" speed="7.17" pos="24.57" lane="A2A1_0" slope="0.00"/>
        <vehicle id="6" x="1.60" y="20.60" angle="0.00" type="DEFAULT_VEHTYPE" speed="5.84" pos="17.40" lane="A0A1_0" slope="0.00"/>
        <vehicle id="7" x="98.40" y="183.15" angle="180.00" type="DEFAULT_VEHTYPE" speed="3.13" pos="9.65" lane="B2B1_0" slope="0.00"/>
        <vehicle id="8" x="-1.60" y="189.44" angle="180.00" type="DEFAULT_VEHTYPE" speed="2.26" pos="7.36" lane="A2A1_0" slope="0.00"/>
        <vehicle id="9" x="187.70" y="101.60" angle="270.00" type="DEFAULT_VEHTYPE" speed="0.00" pos="5.10" lane="C1B1_0" slope="0.00"/>
    </timestep>
    <timestep time="10.00">
        <vehicle id="0" x="98.40" y="94.08" angle="180.00" type="DEFAULT_VEHTYPE" speed="12.78" pos="13.12" lane=":B1_1_0" slope="0.00"/>
        <vehicle id="1" x="86.40" y="198.40" angle="90.00" type="DEFAULT_VEHTYPE" speed="9.43" pos="83.20" lane="A2B2_0" slope="0.00"/>
        <vehicle id="2" x="122.33" y="1.60" angle="270.00" type="DEFAULT_VEHTYPE" speed="14.48" pos="74.47" lane="C0B0_0" slope="0.00"/>
        <vehicle id="3" x="201.60" y="167.19" angle="0.00" type="DEFAULT_VEHTYPE" speed="13.95" pos="59.99" lane="C1C2_0" slope="0.00"/>
        <vehicle id="4" x="46.76" y="101.60" angle="270.00" type="DEFAULT_VEHTYPE" speed="12.03" pos="46.04" lane="B1A1_0" slope="0.00"/>
        <vehicle id="5" x="-1.60" y="162.46" angle="180.00" type="DEFAULT_VEHTYPE" speed="9.77" pos="34.34" lane="A2A1_0" slope="0.00"/>
        <vehicle id="6" x="1.60" y="27.77" angle="0.00" type="DEFAULT_VEHTYPE" speed="7.17" pos="24.57" lane="A0A1_0" slope="0.00"/>
        <vehicle id="7" x="98.40" y="178.42" angle="180.00" type="DEFAULT_VEHTYPE" speed="4.73" pos="14.38" lane="B2B1_0" slope="0.00"/>
        <vehicle id="8" x="-1.60" y="185.25" angle="180.00" type="DEFAULT_VEHTYPE" speed="4.19" pos="11.55" lane="A2A1_0" slope="0.00"/>
        <vehicle id="9" x="185.19" y="101.60" angle="270.00" type="DEFAULT_VEHTYPE" speed="2.51" pos="7.61" lane="C1B1_0" slope="0.00"/>
    </timestep>
    <timestep time="11.00">
        <vehicle id="0" x="98.40" y="81.01" angle="180.00" type="DEFAULT_VEHTYPE" speed="13.07" pos="11.79" lane="B1B0_0" slope="0.00"/>
        <vehicle id="1" x="91.71" y="198.40" angle="90.00" type="DEFAULT_VEHTYPE" speed="5.31" pos="88.51" lane="A2B2_0" slope="0.00"/>
        <vehicle id="2" x="111.63" y="1.60" angle="270.00" type="DEFAULT_VEHTYPE" speed="10.71" pos="85.17" lane="C0B0_0" slope="0.00"/>
        <vehicle id="3" x="201.60" y="181.61" angle="0.00" type="DEFAULT_VEHTYPE" speed="14.42" pos="74.41" lane="C1C2_0" slope="0.00"/>
        <vehicle id="4" x="34.67" y="101.60" angle="270.00" type="DEFAULT_VEHTYPE" speed="12.10" pos="58.13" lane="B1A1_0" slope="0.00"/>
        <vehicle id="5" x="-1.60" y="150.59" angle="180.00" type="DEFAULT_VEHTYPE" speed="11.87" pos="46.21" lane="A2A1_0" slope="0.00"/>
        <vehicle id="6" x="1.60" y="37.21" angle="0.00" type="DEFAULT_VEHTYPE" speed="9.44" pos="34.01" lane="A0A1_0" slope="0.00"/>
        <vehicle id="7" x="98.40" y="171.19" angle="180.00" type="DEFAULT_VEHTYPE" speed="7.23" pos="21.61" lane="B2B1_0" slope="0.00"/>
        <vehicle id="8" x="-1.60" y="179.64" angle="180.00" type="DEFAULT_VEHTYPE" speed="5.61" pos="17.16" lane="A2A1_0" slope="0.00"/>
        <vehicle id="9" x="181.24" y="101.60" angle="270.00" type="DEFAULT_VEHTYPE" speed="3.95" pos="11.56" lane="C1B1_0" slope="0.00"/>
    </timestep>
    <timestep time="12.00">
        <vehicle id="0" x="98.40" y="67.14" angle="180.00" type="DEFAULT_VEHTYPE" speed="13.87" pos="25.66" lane="B1B0_0" slope="0.00"/>
        <vehicle id="1" x="94.17" y="199.54" angle="75.94" type="DEFAULT_VEHTYPE" speed="2.91" pos="0.38" lane=":B2_11_0" slope="0.00"/>
        <vehicle id="10" x="187.70" y="101.60" angle="270.00" type="DEFAULT_VEHTYPE" speed="0.00" pos="5.10" lane="C1B1_0" slope="0.00"/>
        <vehicle id="2" x="105.44" y="1.85" angle="272.89" type="DEFAULT_VEHTYPE" speed="6.21" pos="1.78" lane=":B0_3_0" slope="0.00"/>
        <vehicle id="3" x="201.60" y="191.53" angle="0.00" type="DEFAULT_VEHTYPE" speed="9.92" pos="84.33" lane="C1C2_0" slope="0.00"/>
        <vehicle id="4" x="22.38" y="101.60" angle="270.00" type="DEFAULT_VEHTYPE" speed="12.28" pos="70.42" lane="B1A1_0" slope="0.00"/>
        <vehicle id="5" x="-1.60" y="138.15" angle="180.00" type="DEFAULT_VEHTYPE" speed="12.44" pos="58.65" lane="A2A1_0" slope="0.00"/>
        <vehicle id="6" x="1.60" y="49.24" angle="0.00" type="DEFAULT_VEHTYPE" speed="12.03" pos="46.04" lane="A0A1_0" slope="0.00"/>
        <vehicle id="7" x="98.40" y="162.00" angle="180.00" type="DEFAULT_VEHTYPE" speed="9.19" pos="30.80" lane="B2B1_0" slope="0.00"/>
        <vehicle id="8" x="-1.60" y="172.33" angle="180.00" type="DEFAULT_VEHTYPE" speed="7.32" pos="24.47" lane="A2A1_0" slope="0.00"/>
        <vehicle id="9" x="175.40" y="101.60" angle="270.00" type="DEFAULT_VEHTYPE" speed="5.84" pos="17.40" lane="C1B1_0" slope="0.00"/>
    </timestep>
    <timestep time="13.00">
        <vehicle id="0" x="98.40" y="54.33" angle="180.00" type="DEFAULT_VEHTYPE" speed="12.81" pos="38.47" lane="B1B0_0" slope="0.00"/>
        <vehicle id="1" x="91.94" y="201.60" angle="335.85" type="DEFAULT_VEHTYPE" speed="3.71" pos="0.86" lane="B2A2_0" slope="0.00"/>
        <vehicle id="10" x="185.44" y="101.60" angle="270.00" type="DEFAULT_VEHTYPE" speed="2.26" pos="7.36" lane="C1B1_0" slope="0.00"/>
        <vehicle id="13" x="-1.60" y="87.70" angle="180.00" type="DEFAULT_VEHTYPE" speed="0.00" pos="5.10" lane="A1A0_0" slope="0.00"/>
        <vehicle id="2" x="101.65" y="6.87" angle="334.43" type="DEFAULT_VEHTYPE" speed="6.92" pos="8.70" lane=":B0_3_0" slope="0.00"/>
        <vehicle id="3" x="201.54" y="197.24" angle="359.28" type="DEFAULT_VEHTYPE" speed="5.72" pos="0.44" lane=":C2_0_0" slope="0.00"/>
        <vehicle id="4" x="14.03" y="101.60" angle="270.00" type="DEFAULT_VEHTYPE" speed="8.35" pos="78.77" lane="B1A1_0" slope="0.00"/>
        <vehicle id="5" x="-1.60" y="125.89" angle="180.00" type="DEFAULT_VEHTYPE" speed="12.25" pos="70.91" lane="A2A1_0" slope="0.00"/>
        <vehicle id="6" x="1.60" y="63.19" angle="0.00" type="DEFAULT_VEHTYPE" speed="13.95" pos="59.99" lane="A0A1_0" slope="0.00"/>
        <vehicle id="7" x="98.40" y="150.41" angle="180.00" type="DEFAULT_VEHTYPE" speed="11.59" pos="42.39" lane="B2B1_0" slope="0.00"/>
        <vehicle id="8" x="-1.60" y="162.51" angle="180.00" type="DEFAULT_VEHTYPE" speed="9.82" pos="34.29" lane="A2A1_0" slope="0.00"/>
        <vehicle id="9" x="168.23" y="101.60" angle="270.00" type="DEFAULT_VEHTYPE" speed="7.17" pos="24.57" lane="C1B1_0" slope="0.00"/>
    </timestep>
    <timestep time="14.00">
        <vehicle id="0" x="98.40" y="41.09" angle="180.00" type="DEFAULT_VEHTYPE" speed="13.24" pos="51.71" lane="B1B0_0" slope="0.00"/>
        <vehicle id="1" x="85.72" y="201.60" angle="270.00" type="DEFAULT_VEHTYPE" speed="6.22" pos="7.08" lane="B2A2_0" slope="0.00"/>
        <vehicle id="10" x="181.25" y="101.60" angle="270.00" type="DEFAULT_VEHTYPE" speed="4.19" pos="11.55" lane="C1B1_0" slope="0.00"/>
        <vehicle id="13" x="-1.60" y="85.19" angle="180.00" type="DEFAULT_VEHTYPE" speed="2.51" pos="7.61" lane="A1A0_0" slope="0.00"/>
        <vehicle id="14" x="198.40" y="87.70" angle="180.00" type="DEFAULT_VEHTYPE" speed="0.00" pos="5.10" lane="C1C0_0" slope="0.00"/>
        <vehicle id="2" x="101.60" y="12.73" angle="0.00" type="DEFAULT_VEHTYPE" speed="5.86" pos="5.53" lane="B0B1_0" slope="0.00"/>
        <vehicle id="3" x="197.66" y="201.48" angle="307.49" type="DEFAULT_VEHTYPE" speed="6.43" pos="6.88" lane=":C2_0_0" slope="0.00"/>
        <vehicle id="4" x="9.23" y="101.60" angle="270.00" type="DEFAULT_VEHTYPE" speed="4.81" pos="83.57" lane="B1A1_0" slope="0.00"/>
        <vehicle id="5" x="-1.60" y="114.48" angle="180.00" type="DEFAULT_VEHTYPE" speed="11.41" pos="82.32" lane="A2A1_0" slope="0.00"/>
        <vehicle id="6" x="1.60" y="78.81" angle="0.00" type="DEFAULT_VEHTYPE" speed="15.62" pos="75.61" lane="A0A1_0" slope="0.00"/>
        <vehicle id="7" x="98.40" y="136.73" angle="180.00" type="DEFAULT_VEHTYPE" speed="13.69" pos="56.07" lane="B2B1_0" slope="0.00"/>
        <vehicle id="8" x="-1.60" y="150.29" angle="180.00" type="DEFAULT_VEHTYPE" speed="12.22" pos="46.51" lane="A2A1_0" slope="0.00"/>
        <vehicle id="9" x="158.46" y="101.60" angle="270.00" type="DEFAULT_VEHTYPE" speed="9.77" pos="34.34" lane="C1B1_0" slope="0.00"/>
    </timestep>
    <timestep time="15.00">
        <vehicle id="0" x="98.40" y="28.39" angle="180.00" type="DEFAULT_VEHTYPE" speed="12.70" pos="64.41" lane="B1B0_0" slope="0.00"/>
        <vehicle id="1" x="78.06" y="201.60" angle="270.00" type="DEFAULT_VEHTYPE" speed="7.67" pos="14.74" lane="B2A2_0" slope="0.00"/>
        <vehicle id="10" x="175.64" y="101.60" angle="270.00" type="DEFAULT_VEHTYPE" speed="5.61" pos="17.16" lane="C1B1_0" slope="0.00"/>
        <vehicle id="13" x="-1.60" y="81.24" angle="180.00" type="DEFAULT_VEHTYPE" speed="3.95" pos="11.56" lane="A1A0_0" slope="0.00"/>
        <vehicle id="14" x="198.40" y="85.19" angle="180.00" type="DEFAULT_VEHTYPE" speed="2.51" pos="7.61" lane="C1C0_0" slope="0.00"/>
        <vehicle id="15" x="187.70" y="101.60" angle="270.00" type="DEFAULT_VEHTYPE" speed="0.00" pos="5.10" lane="C1B1_0" slope="0.00"/>
        <vehicle id="2" x="101.60" y="21.10" angle="0.00" type="DEFAULT_VEHTYPE" speed="8.37" pos="13.90" lane="B0B1_0" slope="0.00"/>
        <vehicle id="3" x="192.29" y="201.60" angle="270.80" type="DEFAULT_VEHTYPE" speed="5.37" pos="4.51" lane="C2B2_0" slope="0.00"/>
        <vehicle id="4" x="7.96" y="101.60" angle="270.00" type="DEFAULT_VEHTYPE" speed="1.26" pos="84.84" lane="B1A1_0" slope="0.00"/>
        <vehicle id="5" x="-1.59" y="107.12" angle="179.86" type="DEFAULT_VEHTYPE" speed="7.37" pos="0.08" lane=":A1_1_0" slope="0.00"/>
        <vehicle id="6" x="1.60" y="89.93" angle="0.00" type="DEFAULT_VEHTYPE" speed="11.12" pos="86.73" lane="A0A1_0" slope="0.00"/>
        <vehicle id="7" x="98.40" y="123.70" angle="180.00" type="DEFAULT_VEHTYPE" speed="13.02" pos="69.10" lane="B2B1_0" slope="0.00"/>
        <vehicle id="8" x="-1.60" y="137.19" angle="180.00" type="DEFAULT_VEHTYPE" speed="13.10" pos="59.61" lane="A2A1_0" slope="0.00"/>
        <vehicle id="9" x="146.59" y="101.60" angle="270.00" type="DEFAULT_VEHTYPE" speed="11.87" pos="46.21" lane="C1B1_0" slope="0.00"/>
    </timestep>
    <timestep time="16.00">
        <vehicle id="0" x="98.40" y="17.20" angle="180.00" type="DEFAULT_VEHTYPE" speed="11.19" pos="75.60" lane="B1B0_0" slope="0.00"/>
        <vehicle id="1" x="68.51" y="201.60" angle="270.00" type="DEFAULT_VEHTYPE" speed="9.55" pos="24.29" lane="B2A2_0" slope="0.00"/>
        <vehicle id="10" x="168.33" y="101.60" angle="270.00" type="DEFAULT_VEHTYPE" speed="7.32" pos="24.47" lane="C1B1_0" slope="0.00"/>
        <vehicle id="13" x="-1.60" y="75.40" angle="180.00" type="DEFAULT_VEHTYPE" speed="5.84" pos="17.40" lane="A1A0_0" slope="0.00"/>
        <vehicle id="14" x="198.40" y="81.24" angle="180.00" type="DEFAULT_VEHTYPE" speed="3.95" pos="11.56" lane="C1C0_0" slope="0.00"/>
        <vehicle id="15" x="186.10" y="101.60" angle="270.00" type="DEFAULT_VEHTYPE" speed="1.60" pos="6.70" lane="C1B1_0" slope="0.00"/>
        <vehicle id="2" x="101.60" y="30.92" angle="0.00" type="DEFAULT_VEHTYPE" speed="9.82" pos="23.72" lane="B0B1_0" slope="0.00"/>
        <vehicle id="3" x="184.41" y="201.60" angle="270.00" type="DEFAULT_VEHTYPE" speed="7.88" pos="12.39" lane="C2B2_0" slope="0.00"/>
        <vehicle id="4" x="7.56" y="101.60" angle="270.00" type="DEFAULT_VEHTYPE" speed="0.41" pos="85.24" lane="B1A1_0" slope="0.00"/>
        <vehicle id="5" x="-1.05" y="103.37" angle="173.70" type="DEFAULT_VEHTYPE" speed="3.79" pos="3.88" lane=":A1_1_0" slope="0.00"/>
        <vehicle id="6" x="2.67" y="96.45" angle="12.62" type="DEFAULT_VEHTYPE" speed="6.74" pos="3.87" lane=":A1_6_0" slope="0.00"/>
        <vehicle id="7" x="98.40" y="112.91" angle="180.00" type="DEFAULT_VEHTYPE" speed="10.80" pos="79.89" lane="B2B1_0" slope="0.00"/>
        <vehicle id="8" x="-1.60" y="124.74" angle="180.00" type="DEFAULT_VEHTYPE" speed="12.45" pos="72.06" lane="A2A1_0" slope="0.00"/>
        <vehicle id="9" x="134.90" y="101.60" angle="270.00" type="DEFAULT_VEHTYPE" speed="11.69" pos="57.90" lane="C1B1_0" slope="0.00"/>
    </timestep>
    <timestep time="17.00">
        <vehicle id="0" x="98.40" y="10.01" angle="180.00" type="DEFAULT_VEHTYPE" speed="7.19" pos="82.79" lane="B1B0_0" slope="0.00"/>
        <vehicle id="1" x="57.63" y="201.60" angle="270.00" type="DEFAULT_VEHTYPE" speed="10.88" pos="35.17" lane="B2A2_0" slope="0.00"/>
        <vehicle id="10" x="159.05" y="101.60" angle="270.00" type="DEFAULT_VEHTYPE" speed="9.27" pos="33.75" lane="C1B1_0" slope="0.00"/>
        <vehicle id="12" x="191.70" y="201.60" angle="270.00" type="DEFAULT_VEHTYPE" speed="0.00" pos="5.10" lane="C2B2_0" slope="0.00"/>
        <vehicle id="13" x="-1.60" y="68.23" angle="180.00" type="DEFAULT_VEHTYPE" speed="7.17" pos="24.57" lane="A1A0_0" slope="0.00"/>
        <vehicle id="14" x="198.40" y="75.40" angle="180.00" type="DEFAULT_VEHTYPE" speed="5.84" pos="17.40" lane="C1C0_0" slope="0.00"/>
        <vehicle id="15" x="182.10" y="101.60" angle="270.00" type="DEFAULT_VEHTYPE" speed="4.00" pos="10.70" lane="C1B1_0" slope="0.00"/>
        <vehicle id="17" x="112.30" y="-1.60" angle="90.00" type="DEFAULT_VEHTYPE" speed="0.00" pos="5.10" lane="B0C0_0" slope="0.00"/>
        <vehicle id="2" x="101.60" y="42.62" angle="0.00" type="DEFAULT_VEHTYPE" speed="11.70" pos="35.42" lane="B0B1_0" slope="0.00"/>
        <vehicle id="3" x="175.08" y="201.60" angle="270.00" type="DEFAULT_VEHTYPE" speed="9.33" pos="21.72" lane="C2B2_0" slope="0.00"/>
        <vehicle id="4" x="7.31" y="101.60" angle="270.00" type="DEFAULT_VEHTYPE" speed="0.25" pos="85.49" lane="B1A1_0" slope="0.00"/>
        <vehicle id="5" x="-1.03" y="103.32" angle="173.47" type="DEFAULT_VEHTYPE" speed="0.05" pos="3.93" lane=":A1_1_0" slope="0.00"/>
        <vehicle id="6" x="8.88" y="98.40" angle="80.79" type="DEFAULT_VEHTYPE" speed="6.83" pos="1.68" lane="A1B1_0" slope="0.00"/>
        <vehicle id="7" x="98.50" y="106.50" angle="178.85" type="DEFAULT_VEHTYPE" speed="6.42" pos="0.71" lane=":B1_2_0" slope="0.00"/>
        <vehicle id="8" x="-1.60" y="116.27" angle="180.00" type="DEFAULT_VEHTYPE" speed="8.47" pos="80.53" lane="A2A1_0" slope="0.00"/>
        <vehicle id="9" x="122.50" y="101.60" angle="270.00" type="DEFAULT_VEHTYPE" speed="12.40" pos="70.30" lane="C1B1_0" slope="0.00"/>
    </timestep>
    <timestep time="18.00">
        <vehicle id="0" x="97.75" y="4.25" angle="187.57" type="DEFAULT_VEHTYPE" speed="5.86" pos="3.06" lane=":B0_0_0" slope="0.00"/>
        <vehicle id="1" x="44.48" y="201.60" angle="270.00" type="DEFAULT_VEHTYPE" speed="13.15" pos="48.32" lane="B2A2_0" slope="0.00"/>
        <vehicle id="10" x="148.11" y="101.60" angle="270.00" type="DEFAULT_VEHTYPE" speed="10.94" pos="44.69" lane="C1B1_0" slope="0.00"/>
        <vehicle id="11" x="101.60" y="12.30" angle="0.00" type="DEFAULT_VEHTYPE" speed="0.00" pos="5.10" lane="B0B1_0" slope="0.00"/>
        <vehicle id="12" x="190.36" y="201.60" angle="270.00" type="DEFAULT_VEHTYPE" speed="1.34" pos="6.44" lane="C2B2_0" slope="0.00"/>
        <vehicle id="13" x="-1.60" y="58.79" angle="180.00" type="DEFAULT_VEHTYPE" speed="9.44" pos="34.01" lane="A1A0_0" slope="0.00"/>
        <vehicle id="14" x="198.40" y="68.23" angle="180.00" type="DEFAULT_VEHTYPE" speed="7.17" pos="24.57" lane="C1C0_0" slope="0.00"/>
        <vehicle id="15" x="176.03" y="101.60" angle="270.00" type="DEFAULT_VEHTYPE" speed="6.07" pos="16.77" lane="C1B1_0" slope="0.00"/>
        <vehicle id="17" x="114.81" y="-1.60" angle="90.00" type="DEFAULT_VEHTYPE" speed="2.51" pos="7.61" lane="B0C0_0" slope="0.00"/>
        <vehicle id="18" x="187.70" y="101.60" angle="270.00" type="DEFAULT_VEHTYPE" speed="0.00" pos="5.10" lane="C1B1_0" slope="0.00"/>
        <vehicle id="2" x="101.60" y="55.65" angle="0.00" type="DEFAULT_VEHTYPE" speed="13.04" pos="48.45" lane="B0B1_0" slope="0.00"/>
        <vehicle id="3" x="163.87" y="201.60" angle="270.00" type="DEFAULT_VEHTYPE" speed="11.21" pos="32.93" lane="C2B2_0" slope="0.00"/>
        <vehicle id="4" x="7.30" y="101.60" angle="270.00" type="DEFAULT_VEHTYPE" speed="0.01" pos="85.50" lane="B1A1_0" slope="0.00"/>
        <vehicle id="5" x="-0.04" y="101.66" angle="162.92" type="DEFAULT_VEHTYPE" speed="1.93" pos="1.79" lane=":A1_9_0" slope="0.00"/>
        <vehicle id="6" x="18.22" y="98.40" angle="90.00" type="DEFAULT_VEHTYPE" speed="9.34" pos="11.02" lane="A1B1_0" slope="0.00"/>
        <vehicle id="7" x="101.93" y="99.80" angle="141.50" type="DEFAULT_VEHTYPE" speed="7.94" pos="4.58" lane=":B1_16_0" slope="0.00"/>
        <vehicle id="8" x="-1.60" y="111.42" angle="180.00" type="DEFAULT_VEHTYPE" speed="4.85" pos="85.38" lane="A2A1_0" slope="0.00"/>
        <vehicle id="9" x="113.20" y="101.60" angle="270.00" type="DEFAULT_VEHTYPE" speed="9.30" pos="79.60" lane="C1B1_0" slope="0.00"/>
    </timestep>
    <timestep time="19.00">
        <vehicle id="0" x="92.95" y="1.62" angle="246.31" type="DEFAULT_VEHTYPE" speed="5.82" pos="8.88" lane=":B0_0_0" slope="0.00"/>
        <vehicle id="1" x="30.01" y="201.60" angle="270.00" type="DEFAULT_VEHTYPE" speed="14.47" pos="62.79" lane="B2A2_0" slope="0.00"/>
        <vehicle id="10" x="134.72" y="101.60" angle="270.00" type="DEFAULT_VEHTYPE" speed="13.39" pos="58.08" lane="C1B1_0" slope="0.00"/>
        <vehicle id="11" x="101.60" y="14.89" angle="0.00" type="DEFAULT_VEHTYPE" speed="2.59" pos="7.69" lane="B0B1_0" slope="0.00"/>
        <vehicle id="12" x="186.43" y="201.60" angle="270.00" type="DEFAULT_VEHTYPE" speed="3.93" pos="10.37" lane="C2B2_0" slope="0.00"/>
        <vehicle id="13" x="-1.60" y="46.76" angle="180.00" type="DEFAULT_VEHTYPE" speed="12.03" pos="46.04" lane="A1A0_0" slope="0.00"/>
        <vehicle id="14" x="198.40" y="58.79" angle="180.00" type="DEFAULT_VEHTYPE" speed="9.44" pos="34.01" lane="C1C0_0" slope="0.00"/>
        <vehicle id="15" x="168.45" y="101.60" angle="270.00" type="DEFAULT_VEHTYPE" speed="7.58" pos="24.35" lane="C1B1_0" slope="0.00"/>
        <vehicle id="16" x="101.60" y="112.30" angle="0.00" type="DEFAULT_VEHTYPE" speed="0.00" pos="5.10" lane="B1B2_0" slope="0.00"/>
        <vehicle id="17" x="118.76" y="-1.60" angle="90.00" type="DEFAULT_VEHTYPE" speed="3.95" pos="11.56" lane="B0C0_0" slope="0.00"/>
        <vehicle id="18" x="186.40" y="101.60" angle="270.00" type="DEFAULT_VEHTYPE" speed="1.30" pos="6.40" lane="C1B1_0" slope="0.00"/>
        <vehicle id="19" x="198.40" y="87.70" angle="180.00" type="DEFAULT_VEHTYPE" speed="0.00" pos="5.10" lane="C1C0_0" slope="0.00"/>
        <vehicle id="2" x="101.60" y="70.29" angle="0.00" type="DEFAULT_VEHTYPE" speed="14.63" pos="63.09" lane="B0B1_0" slope="0.00"/>
        <vehicle id="3" x="150.40" y="201.60" angle="270.00" type="DEFAULT_VEHTYPE" speed="13.47" pos="46.40" lane="C2B2_0" slope="0.00"/>
        <vehicle id="4" x="7.30" y="101.60" angle="270.00" type="DEFAULT_VEHTYPE" speed="0.00" pos="85.50" lane="B1A1_0" slope="0.00"/>
        <vehicle id="5" x="3.34" y="98.95" angle="131.01" type="DEFAULT_VEHTYPE" speed="4.44" pos="6.23" lane=":A1_9_0" slope="0.00"/>
        <vehicle id="6" x="29.00" y="98.40" angle="90.00" type="DEFAULT_VEHTYPE" speed="10.79" pos="21.80" lane="A1B1_0" slope="0.00"/>
        <vehicle id="7" x="109.68" y="98.40" angle="94.10" type="DEFAULT_VEHTYPE" speed="8.03" pos="2.48" lane="B1C1_0" slope="0.00"/>
        <vehicle id="8" x="-1.60" y="109.92" angle="180.00" type="DEFAULT_VEHTYPE" speed="1.50" pos="86.88" lane="A2A1_0" slope="0.00"/>
        <vehicle id="9" x="108.40" y="101.60" angle="270.00" type="DEFAULT_VEHTYPE" speed="4.80" pos="84.40" lane="C1B1_0" slope="0.00"/>
    </timestep>
    <timestep time="20.00">
        <vehicle id="0" x="86.74" y="1.60" angle="270.00" type="DEFAULT_VEHTYPE" speed="6.21" pos="6.06" lane="B0A0_0" slope="0.00"/>
        <vehicle id="1" x="16.21" y="201.60" angle="270.00" type="DEFAULT_VEHTYPE" speed="13.80" pos="76.59" lane="B2A2_0" slope="0.00"/>
        <vehicle id="10" x="123.90" y="101.60" angle="270.00" type="DEFAULT_VEHTYPE" speed="10.82" pos="68.90" lane="C1B1_0" slope="0.00"/>
        <vehicle id="11" x="101.60" y="19.59" angle="0.00" type="DEFAULT_VEHTYPE" speed="4.70" pos="12.39" lane="B0B1_0" slope="0.00"/>
        <vehicle id="12" x="180.40" y="201.60" angle="270.00" type="DEFAULT_VEHTYPE" speed="6.04" pos="16.40" lane="C2B2_0" slope="0.00"/>
        <vehicle id="13" x="-1.60" y="35.11" angle="180.00" type="DEFAULT_VEHTYPE" speed="11.66" pos="57.69" lane="A1A0_0" slope="0.00"/>
        <vehicle id="14" x="198.40" y="47.43" angle="180.00" type="DEFAULT_VEHTYPE" speed="11.36" pos="45.37" lane="C1C0_0" slope="0.00"/>
        <vehicle id="15" x="158.43" y="101.60" angle="270.00" type="DEFAULT_VEHTYPE" speed="10.02" pos="34.37" lane="C1B1_0" slope="0.00"/>
        <vehicle id="16" x="101.60" y="114.81" angle="0.00" type="DEFAULT_VEHTYPE" speed="2.51" pos="7.61" lane="B1B2_0" slope="0.00"/>
        <vehicle id="17" x="124.60" y="-1.60" angle="90.00" type="DEFAULT_VEHTYPE" speed="5.84" pos="17.40" lane="B0C0_0" slope="0.00"/>
        <vehicle id="18" x="183.27" y="101.60" angle="270.00" type="DEFAULT_VEHTYPE" speed="3.13" pos="9.53" lane="C1B1_0" slope="0.00"/>